LAMMPS Description

     26667  atoms
     14858  bonds
     7429  angles
     0  dihedrals
     0  impropers

     3  atom types
     1  bond types
     1  angle types

  -3.320341e+01 3.320341e+01 xlo xhi
  -2.982000e+01 2.982000e+01 ylo yhi
  -3.940500e+01 1.182150e+02 zlo zhi

Masses

    1  12.0
    2 15.9994
    3 1.008

Atoms # full

1 1 1 0.0 -49.8051180367 -29.11 0.0
2 1 1 0.0 -48.5753619633 -28.4 0.0
3 2 1 0.0 -47.3456058899 -29.11 0.0
4 2 1 0.0 -46.1158498166 -28.4 0.0
5 3 1 0.0 -44.8860937432 -29.11 0.0
6 3 1 0.0 -43.6563376698 -28.4 0.0
7 4 1 0.0 -42.4265815964 -29.11 0.0
8 4 1 0.0 -41.1968255231 -28.4 0.0
9 5 1 0.0 -39.9670694497 -29.11 0.0
10 5 1 0.0 -38.7373133763 -28.4 0.0
11 6 1 0.0 -37.5075573029 -29.11 0.0
12 6 1 0.0 -36.2778012296 -28.4 0.0
13 7 1 0.0 -35.0480451562 -29.11 0.0
14 7 1 0.0 -33.8182890828 -28.4 0.0
15 8 1 0.0 -32.5885330095 -29.11 0.0
16 8 1 0.0 -31.3587769361 -28.4 0.0
17 9 1 0.0 -30.1290208627 -29.11 0.0
18 9 1 0.0 -28.8992647893 -28.4 0.0
19 10 1 0.0 -27.669508716 -29.11 0.0
20 10 1 0.0 -26.4397526426 -28.4 0.0
21 11 1 0.0 -25.2099965692 -29.11 0.0
22 11 1 0.0 -23.9802404958 -28.4 0.0
23 12 1 0.0 -22.7504844225 -29.11 0.0
24 12 1 0.0 -21.5207283491 -28.4 0.0
25 13 1 0.0 -20.2909722757 -29.11 0.0
26 13 1 0.0 -19.0612162023 -28.4 0.0
27 14 1 0.0 -17.831460129 -29.11 0.0
28 14 1 0.0 -16.6017040556 -28.4 0.0
29 15 1 0.0 -15.3719479822 -29.11 0.0
30 15 1 0.0 -14.1421919088 -28.4 0.0
31 16 1 0.0 -12.9124358355 -29.11 0.0
32 16 1 0.0 -11.6826797621 -28.4 0.0
33 17 1 0.0 -10.4529236887 -29.11 0.0
34 17 1 0.0 -9.22316761535 -28.4 0.0
35 18 1 0.0 -7.99341154197 -29.11 0.0
36 18 1 0.0 -6.7636554686 -28.4 0.0
37 19 1 0.0 -5.53389939523 -29.11 0.0
38 19 1 0.0 -4.30414332185 -28.4 0.0
39 20 1 0.0 -3.07438724848 -29.11 0.0
40 20 1 0.0 -1.8446311751 -28.4 0.0
41 21 1 0.0 -0.614875101731 -29.11 0.0
42 21 1 0.0 0.614880971643 -28.4 0.0
43 22 1 0.0 1.84463704502 -29.11 0.0
44 22 1 0.0 3.07439311839 -28.4 0.0
45 23 1 0.0 4.30414919176 -29.11 0.0
46 23 1 0.0 5.53390526514 -28.4 0.0
47 24 1 0.0 6.76366133851 -29.11 0.0
48 24 1 0.0 7.99341741189 -28.4 0.0
49 25 1 0.0 9.22317348526 -29.11 0.0
50 25 1 0.0 10.4529295586 -28.4 0.0
51 26 1 0.0 11.682685632 -29.11 0.0
52 26 1 0.0 12.9124417054 -28.4 0.0
53 27 1 0.0 14.1421977788 -29.11 0.0
54 27 1 0.0 15.3719538521 -28.4 0.0
55 28 1 0.0 -48.5753619633 -26.98 0.0
56 28 1 0.0 -47.3456058899 -26.27 0.0
57 29 1 0.0 -46.1158498166 -26.98 0.0
58 29 1 0.0 -44.8860937432 -26.27 0.0
59 30 1 0.0 -43.6563376698 -26.98 0.0
60 30 1 0.0 -42.4265815964 -26.27 0.0
61 31 1 0.0 -41.1968255231 -26.98 0.0
62 31 1 0.0 -39.9670694497 -26.27 0.0
63 32 1 0.0 -38.7373133763 -26.98 0.0
64 32 1 0.0 -37.5075573029 -26.27 0.0
65 33 1 0.0 -36.2778012296 -26.98 0.0
66 33 1 0.0 -35.0480451562 -26.27 0.0
67 34 1 0.0 -33.8182890828 -26.98 0.0
68 34 1 0.0 -32.5885330095 -26.27 0.0
69 35 1 0.0 -31.3587769361 -26.98 0.0
70 35 1 0.0 -30.1290208627 -26.27 0.0
71 36 1 0.0 -28.8992647893 -26.98 0.0
72 36 1 0.0 -27.669508716 -26.27 0.0
73 37 1 0.0 -26.4397526426 -26.98 0.0
74 37 1 0.0 -25.2099965692 -26.27 0.0
75 38 1 0.0 -23.9802404958 -26.98 0.0
76 38 1 0.0 -22.7504844225 -26.27 0.0
77 39 1 0.0 -21.5207283491 -26.98 0.0
78 39 1 0.0 -20.2909722757 -26.27 0.0
79 40 1 0.0 -19.0612162023 -26.98 0.0
80 40 1 0.0 -17.831460129 -26.27 0.0
81 41 1 0.0 -16.6017040556 -26.98 0.0
82 41 1 0.0 -15.3719479822 -26.27 0.0
83 42 1 0.0 -14.1421919088 -26.98 0.0
84 42 1 0.0 -12.9124358355 -26.27 0.0
85 43 1 0.0 -11.6826797621 -26.98 0.0
86 43 1 0.0 -10.4529236887 -26.27 0.0
87 44 1 0.0 -9.22316761535 -26.98 0.0
88 44 1 0.0 -7.99341154197 -26.27 0.0
89 45 1 0.0 -6.7636554686 -26.98 0.0
90 45 1 0.0 -5.53389939523 -26.27 0.0
91 46 1 0.0 -4.30414332185 -26.98 0.0
92 46 1 0.0 -3.07438724848 -26.27 0.0
93 47 1 0.0 -1.8446311751 -26.98 0.0
94 47 1 0.0 -0.614875101731 -26.27 0.0
95 48 1 0.0 0.614880971643 -26.98 0.0
96 48 1 0.0 1.84463704502 -26.27 0.0
97 49 1 0.0 3.07439311839 -26.98 0.0
98 49 1 0.0 4.30414919176 -26.27 0.0
99 50 1 0.0 5.53390526514 -26.98 0.0
100 50 1 0.0 6.76366133851 -26.27 0.0
101 51 1 0.0 7.99341741189 -26.98 0.0
102 51 1 0.0 9.22317348526 -26.27 0.0
103 52 1 0.0 10.4529295586 -26.98 0.0
104 52 1 0.0 11.682685632 -26.27 0.0
105 53 1 0.0 12.9124417054 -26.98 0.0
106 53 1 0.0 14.1421977788 -26.27 0.0
107 54 1 0.0 15.3719538521 -26.98 0.0
108 54 1 0.0 16.6017099255 -26.27 0.0
109 55 1 0.0 -47.3456058899 -24.85 0.0
110 55 1 0.0 -46.1158498166 -24.14 0.0
111 56 1 0.0 -44.8860937432 -24.85 0.0
112 56 1 0.0 -43.6563376698 -24.14 0.0
113 57 1 0.0 -42.4265815964 -24.85 0.0
114 57 1 0.0 -41.1968255231 -24.14 0.0
115 58 1 0.0 -39.9670694497 -24.85 0.0
116 58 1 0.0 -38.7373133763 -24.14 0.0
117 59 1 0.0 -37.5075573029 -24.85 0.0
118 59 1 0.0 -36.2778012296 -24.14 0.0
119 60 1 0.0 -35.0480451562 -24.85 0.0
120 60 1 0.0 -33.8182890828 -24.14 0.0
121 61 1 0.0 -32.5885330095 -24.85 0.0
122 61 1 0.0 -31.3587769361 -24.14 0.0
123 62 1 0.0 -30.1290208627 -24.85 0.0
124 62 1 0.0 -28.8992647893 -24.14 0.0
125 63 1 0.0 -27.669508716 -24.85 0.0
126 63 1 0.0 -26.4397526426 -24.14 0.0
127 64 1 0.0 -25.2099965692 -24.85 0.0
128 64 1 0.0 -23.9802404958 -24.14 0.0
129 65 1 0.0 -22.7504844225 -24.85 0.0
130 65 1 0.0 -21.5207283491 -24.14 0.0
131 66 1 0.0 -20.2909722757 -24.85 0.0
132 66 1 0.0 -19.0612162023 -24.14 0.0
133 67 1 0.0 -17.831460129 -24.85 0.0
134 67 1 0.0 -16.6017040556 -24.14 0.0
135 68 1 0.0 -15.3719479822 -24.85 0.0
136 68 1 0.0 -14.1421919088 -24.14 0.0
137 69 1 0.0 -12.9124358355 -24.85 0.0
138 69 1 0.0 -11.6826797621 -24.14 0.0
139 70 1 0.0 -10.4529236887 -24.85 0.0
140 70 1 0.0 -9.22316761535 -24.14 0.0
141 71 1 0.0 -7.99341154197 -24.85 0.0
142 71 1 0.0 -6.7636554686 -24.14 0.0
143 72 1 0.0 -5.53389939523 -24.85 0.0
144 72 1 0.0 -4.30414332185 -24.14 0.0
145 73 1 0.0 -3.07438724848 -24.85 0.0
146 73 1 0.0 -1.8446311751 -24.14 0.0
147 74 1 0.0 -0.614875101731 -24.85 0.0
148 74 1 0.0 0.614880971643 -24.14 0.0
149 75 1 0.0 1.84463704502 -24.85 0.0
150 75 1 0.0 3.07439311839 -24.14 0.0
151 76 1 0.0 4.30414919176 -24.85 0.0
152 76 1 0.0 5.53390526514 -24.14 0.0
153 77 1 0.0 6.76366133851 -24.85 0.0
154 77 1 0.0 7.99341741189 -24.14 0.0
155 78 1 0.0 9.22317348526 -24.85 0.0
156 78 1 0.0 10.4529295586 -24.14 0.0
157 79 1 0.0 11.682685632 -24.85 0.0
158 79 1 0.0 12.9124417054 -24.14 0.0
159 80 1 0.0 14.1421977788 -24.85 0.0
160 80 1 0.0 15.3719538521 -24.14 0.0
161 81 1 0.0 16.6017099255 -24.85 0.0
162 81 1 0.0 17.8314659989 -24.14 0.0
163 82 1 0.0 -46.1158498166 -22.72 0.0
164 82 1 0.0 -44.8860937432 -22.01 0.0
165 83 1 0.0 -43.6563376698 -22.72 0.0
166 83 1 0.0 -42.4265815964 -22.01 0.0
167 84 1 0.0 -41.1968255231 -22.72 0.0
168 84 1 0.0 -39.9670694497 -22.01 0.0
169 85 1 0.0 -38.7373133763 -22.72 0.0
170 85 1 0.0 -37.5075573029 -22.01 0.0
171 86 1 0.0 -36.2778012296 -22.72 0.0
172 86 1 0.0 -35.0480451562 -22.01 0.0
173 87 1 0.0 -33.8182890828 -22.72 0.0
174 87 1 0.0 -32.5885330095 -22.01 0.0
175 88 1 0.0 -31.3587769361 -22.72 0.0
176 88 1 0.0 -30.1290208627 -22.01 0.0
177 89 1 0.0 -28.8992647893 -22.72 0.0
178 89 1 0.0 -27.669508716 -22.01 0.0
179 90 1 0.0 -26.4397526426 -22.72 0.0
180 90 1 0.0 -25.2099965692 -22.01 0.0
181 91 1 0.0 -23.9802404958 -22.72 0.0
182 91 1 0.0 -22.7504844225 -22.01 0.0
183 92 1 0.0 -21.5207283491 -22.72 0.0
184 92 1 0.0 -20.2909722757 -22.01 0.0
185 93 1 0.0 -19.0612162023 -22.72 0.0
186 93 1 0.0 -17.831460129 -22.01 0.0
187 94 1 0.0 -16.6017040556 -22.72 0.0
188 94 1 0.0 -15.3719479822 -22.01 0.0
189 95 1 0.0 -14.1421919088 -22.72 0.0
190 95 1 0.0 -12.9124358355 -22.01 0.0
191 96 1 0.0 -11.6826797621 -22.72 0.0
192 96 1 0.0 -10.4529236887 -22.01 0.0
193 97 1 0.0 -9.22316761535 -22.72 0.0
194 97 1 0.0 -7.99341154197 -22.01 0.0
195 98 1 0.0 -6.7636554686 -22.72 0.0
196 98 1 0.0 -5.53389939523 -22.01 0.0
197 99 1 0.0 -4.30414332185 -22.72 0.0
198 99 1 0.0 -3.07438724848 -22.01 0.0
199 100 1 0.0 -1.8446311751 -22.72 0.0
200 100 1 0.0 -0.614875101731 -22.01 0.0
201 101 1 0.0 0.614880971643 -22.72 0.0
202 101 1 0.0 1.84463704502 -22.01 0.0
203 102 1 0.0 3.07439311839 -22.72 0.0
204 102 1 0.0 4.30414919176 -22.01 0.0
205 103 1 0.0 5.53390526514 -22.72 0.0
206 103 1 0.0 6.76366133851 -22.01 0.0
207 104 1 0.0 7.99341741189 -22.72 0.0
208 104 1 0.0 9.22317348526 -22.01 0.0
209 105 1 0.0 10.4529295586 -22.72 0.0
210 105 1 0.0 11.682685632 -22.01 0.0
211 106 1 0.0 12.9124417054 -22.72 0.0
212 106 1 0.0 14.1421977788 -22.01 0.0
213 107 1 0.0 15.3719538521 -22.72 0.0
214 107 1 0.0 16.6017099255 -22.01 0.0
215 108 1 0.0 17.8314659989 -22.72 0.0
216 108 1 0.0 19.0612220723 -22.01 0.0
217 109 1 0.0 -44.8860937432 -20.59 0.0
218 109 1 0.0 -43.6563376698 -19.88 0.0
219 110 1 0.0 -42.4265815964 -20.59 0.0
220 110 1 0.0 -41.1968255231 -19.88 0.0
221 111 1 0.0 -39.9670694497 -20.59 0.0
222 111 1 0.0 -38.7373133763 -19.88 0.0
223 112 1 0.0 -37.5075573029 -20.59 0.0
224 112 1 0.0 -36.2778012296 -19.88 0.0
225 113 1 0.0 -35.0480451562 -20.59 0.0
226 113 1 0.0 -33.8182890828 -19.88 0.0
227 114 1 0.0 -32.5885330095 -20.59 0.0
228 114 1 0.0 -31.3587769361 -19.88 0.0
229 115 1 0.0 -30.1290208627 -20.59 0.0
230 115 1 0.0 -28.8992647893 -19.88 0.0
231 116 1 0.0 -27.669508716 -20.59 0.0
232 116 1 0.0 -26.4397526426 -19.88 0.0
233 117 1 0.0 -25.2099965692 -20.59 0.0
234 117 1 0.0 -23.9802404958 -19.88 0.0
235 118 1 0.0 -22.7504844225 -20.59 0.0
236 118 1 0.0 -21.5207283491 -19.88 0.0
237 119 1 0.0 -20.2909722757 -20.59 0.0
238 119 1 0.0 -19.0612162023 -19.88 0.0
239 120 1 0.0 -17.831460129 -20.59 0.0
240 120 1 0.0 -16.6017040556 -19.88 0.0
241 121 1 0.0 -15.3719479822 -20.59 0.0
242 121 1 0.0 -14.1421919088 -19.88 0.0
243 122 1 0.0 -12.9124358355 -20.59 0.0
244 122 1 0.0 -11.6826797621 -19.88 0.0
245 123 1 0.0 -10.4529236887 -20.59 0.0
246 123 1 0.0 -9.22316761535 -19.88 0.0
247 124 1 0.0 -7.99341154197 -20.59 0.0
248 124 1 0.0 -6.7636554686 -19.88 0.0
249 125 1 0.0 -5.53389939523 -20.59 0.0
250 125 1 0.0 -4.30414332185 -19.88 0.0
251 126 1 0.0 -3.07438724848 -20.59 0.0
252 126 1 0.0 -1.8446311751 -19.88 0.0
253 127 1 0.0 -0.614875101731 -20.59 0.0
254 127 1 0.0 0.614880971643 -19.88 0.0
255 128 1 0.0 1.84463704502 -20.59 0.0
256 128 1 0.0 3.07439311839 -19.88 0.0
257 129 1 0.0 4.30414919176 -20.59 0.0
258 129 1 0.0 5.53390526514 -19.88 0.0
259 130 1 0.0 6.76366133851 -20.59 0.0
260 130 1 0.0 7.99341741189 -19.88 0.0
261 131 1 0.0 9.22317348526 -20.59 0.0
262 131 1 0.0 10.4529295586 -19.88 0.0
263 132 1 0.0 11.682685632 -20.59 0.0
264 132 1 0.0 12.9124417054 -19.88 0.0
265 133 1 0.0 14.1421977788 -20.59 0.0
266 133 1 0.0 15.3719538521 -19.88 0.0
267 134 1 0.0 16.6017099255 -20.59 0.0
268 134 1 0.0 17.8314659989 -19.88 0.0
269 135 1 0.0 19.0612220723 -20.59 0.0
270 135 1 0.0 20.2909781456 -19.88 0.0
271 136 1 0.0 -43.6563376698 -18.46 0.0
272 136 1 0.0 -42.4265815964 -17.75 0.0
273 137 1 0.0 -41.1968255231 -18.46 0.0
274 137 1 0.0 -39.9670694497 -17.75 0.0
275 138 1 0.0 -38.7373133763 -18.46 0.0
276 138 1 0.0 -37.5075573029 -17.75 0.0
277 139 1 0.0 -36.2778012296 -18.46 0.0
278 139 1 0.0 -35.0480451562 -17.75 0.0
279 140 1 0.0 -33.8182890828 -18.46 0.0
280 140 1 0.0 -32.5885330095 -17.75 0.0
281 141 1 0.0 -31.3587769361 -18.46 0.0
282 141 1 0.0 -30.1290208627 -17.75 0.0
283 142 1 0.0 -28.8992647893 -18.46 0.0
284 142 1 0.0 -27.669508716 -17.75 0.0
285 143 1 0.0 -26.4397526426 -18.46 0.0
286 143 1 0.0 -25.2099965692 -17.75 0.0
287 144 1 0.0 -23.9802404958 -18.46 0.0
288 144 1 0.0 -22.7504844225 -17.75 0.0
289 145 1 0.0 -21.5207283491 -18.46 0.0
290 145 1 0.0 -20.2909722757 -17.75 0.0
291 146 1 0.0 -19.0612162023 -18.46 0.0
292 146 1 0.0 -17.831460129 -17.75 0.0
293 147 1 0.0 -16.6017040556 -18.46 0.0
294 147 1 0.0 -15.3719479822 -17.75 0.0
295 148 1 0.0 -14.1421919088 -18.46 0.0
296 148 1 0.0 -12.9124358355 -17.75 0.0
297 149 1 0.0 -11.6826797621 -18.46 0.0
298 149 1 0.0 -10.4529236887 -17.75 0.0
299 150 1 0.0 -9.22316761535 -18.46 0.0
300 150 1 0.0 -7.99341154197 -17.75 0.0
301 151 1 0.0 -6.7636554686 -18.46 0.0
302 151 1 0.0 -5.53389939523 -17.75 0.0
303 152 1 0.0 -4.30414332185 -18.46 0.0
304 152 1 0.0 -3.07438724848 -17.75 0.0
305 153 1 0.0 -1.8446311751 -18.46 0.0
306 153 1 0.0 -0.614875101731 -17.75 0.0
307 154 1 0.0 0.614880971643 -18.46 0.0
308 154 1 0.0 1.84463704502 -17.75 0.0
309 155 1 0.0 3.07439311839 -18.46 0.0
310 155 1 0.0 4.30414919176 -17.75 0.0
311 156 1 0.0 5.53390526514 -18.46 0.0
312 156 1 0.0 6.76366133851 -17.75 0.0
313 157 1 0.0 7.99341741189 -18.46 0.0
314 157 1 0.0 9.22317348526 -17.75 0.0
315 158 1 0.0 10.4529295586 -18.46 0.0
316 158 1 0.0 11.682685632 -17.75 0.0
317 159 1 0.0 12.9124417054 -18.46 0.0
318 159 1 0.0 14.1421977788 -17.75 0.0
319 160 1 0.0 15.3719538521 -18.46 0.0
320 160 1 0.0 16.6017099255 -17.75 0.0
321 161 1 0.0 17.8314659989 -18.46 0.0
322 161 1 0.0 19.0612220723 -17.75 0.0
323 162 1 0.0 20.2909781456 -18.46 0.0
324 162 1 0.0 21.520734219 -17.75 0.0
325 163 1 0.0 -42.4265815964 -16.33 0.0
326 163 1 0.0 -41.1968255231 -15.62 0.0
327 164 1 0.0 -39.9670694497 -16.33 0.0
328 164 1 0.0 -38.7373133763 -15.62 0.0
329 165 1 0.0 -37.5075573029 -16.33 0.0
330 165 1 0.0 -36.2778012296 -15.62 0.0
331 166 1 0.0 -35.0480451562 -16.33 0.0
332 166 1 0.0 -33.8182890828 -15.62 0.0
333 167 1 0.0 -32.5885330095 -16.33 0.0
334 167 1 0.0 -31.3587769361 -15.62 0.0
335 168 1 0.0 -30.1290208627 -16.33 0.0
336 168 1 0.0 -28.8992647893 -15.62 0.0
337 169 1 0.0 -27.669508716 -16.33 0.0
338 169 1 0.0 -26.4397526426 -15.62 0.0
339 170 1 0.0 -25.2099965692 -16.33 0.0
340 170 1 0.0 -23.9802404958 -15.62 0.0
341 171 1 0.0 -22.7504844225 -16.33 0.0
342 171 1 0.0 -21.5207283491 -15.62 0.0
343 172 1 0.0 -20.2909722757 -16.33 0.0
344 172 1 0.0 -19.0612162023 -15.62 0.0
345 173 1 0.0 -17.831460129 -16.33 0.0
346 173 1 0.0 -16.6017040556 -15.62 0.0
347 174 1 0.0 -15.3719479822 -16.33 0.0
348 174 1 0.0 -14.1421919088 -15.62 0.0
349 175 1 0.0 -12.9124358355 -16.33 0.0
350 175 1 0.0 -11.6826797621 -15.62 0.0
351 176 1 0.0 -10.4529236887 -16.33 0.0
352 176 1 0.0 -9.22316761535 -15.62 0.0
353 177 1 0.0 -7.99341154197 -16.33 0.0
354 177 1 0.0 -6.7636554686 -15.62 0.0
355 178 1 0.0 -5.53389939523 -16.33 0.0
356 178 1 0.0 -4.30414332185 -15.62 0.0
357 179 1 0.0 -3.07438724848 -16.33 0.0
358 179 1 0.0 -1.8446311751 -15.62 0.0
359 180 1 0.0 -0.614875101731 -16.33 0.0
360 180 1 0.0 0.614880971643 -15.62 0.0
361 181 1 0.0 1.84463704502 -16.33 0.0
362 181 1 0.0 3.07439311839 -15.62 0.0
363 182 1 0.0 4.30414919176 -16.33 0.0
364 182 1 0.0 5.53390526514 -15.62 0.0
365 183 1 0.0 6.76366133851 -16.33 0.0
366 183 1 0.0 7.99341741189 -15.62 0.0
367 184 1 0.0 9.22317348526 -16.33 0.0
368 184 1 0.0 10.4529295586 -15.62 0.0
369 185 1 0.0 11.682685632 -16.33 0.0
370 185 1 0.0 12.9124417054 -15.62 0.0
371 186 1 0.0 14.1421977788 -16.33 0.0
372 186 1 0.0 15.3719538521 -15.62 0.0
373 187 1 0.0 16.6017099255 -16.33 0.0
374 187 1 0.0 17.8314659989 -15.62 0.0
375 188 1 0.0 19.0612220723 -16.33 0.0
376 188 1 0.0 20.2909781456 -15.62 0.0
377 189 1 0.0 21.520734219 -16.33 0.0
378 189 1 0.0 22.7504902924 -15.62 0.0
379 190 1 0.0 -41.1968255231 -14.2 0.0
380 190 1 0.0 -39.9670694497 -13.49 0.0
381 191 1 0.0 -38.7373133763 -14.2 0.0
382 191 1 0.0 -37.5075573029 -13.49 0.0
383 192 1 0.0 -36.2778012296 -14.2 0.0
384 192 1 0.0 -35.0480451562 -13.49 0.0
385 193 1 0.0 -33.8182890828 -14.2 0.0
386 193 1 0.0 -32.5885330095 -13.49 0.0
387 194 1 0.0 -31.3587769361 -14.2 0.0
388 194 1 0.0 -30.1290208627 -13.49 0.0
389 195 1 0.0 -28.8992647893 -14.2 0.0
390 195 1 0.0 -27.669508716 -13.49 0.0
391 196 1 0.0 -26.4397526426 -14.2 0.0
392 196 1 0.0 -25.2099965692 -13.49 0.0
393 197 1 0.0 -23.9802404958 -14.2 0.0
394 197 1 0.0 -22.7504844225 -13.49 0.0
395 198 1 0.0 -21.5207283491 -14.2 0.0
396 198 1 0.0 -20.2909722757 -13.49 0.0
397 199 1 0.0 -19.0612162023 -14.2 0.0
398 199 1 0.0 -17.831460129 -13.49 0.0
399 200 1 0.0 -16.6017040556 -14.2 0.0
400 200 1 0.0 -15.3719479822 -13.49 0.0
401 201 1 0.0 -14.1421919088 -14.2 0.0
402 201 1 0.0 -12.9124358355 -13.49 0.0
403 202 1 0.0 -11.6826797621 -14.2 0.0
404 202 1 0.0 -10.4529236887 -13.49 0.0
405 203 1 0.0 -9.22316761535 -14.2 0.0
406 203 1 0.0 -7.99341154197 -13.49 0.0
407 204 1 0.0 -6.7636554686 -14.2 0.0
408 204 1 0.0 -5.53389939523 -13.49 0.0
409 205 1 0.0 -4.30414332185 -14.2 0.0
410 205 1 0.0 -3.07438724848 -13.49 0.0
411 206 1 0.0 -1.8446311751 -14.2 0.0
412 206 1 0.0 -0.614875101731 -13.49 0.0
413 207 1 0.0 0.614880971643 -14.2 0.0
414 207 1 0.0 1.84463704502 -13.49 0.0
415 208 1 0.0 3.07439311839 -14.2 0.0
416 208 1 0.0 4.30414919176 -13.49 0.0
417 209 1 0.0 5.53390526514 -14.2 0.0
418 209 1 0.0 6.76366133851 -13.49 0.0
419 210 1 0.0 7.99341741189 -14.2 0.0
420 210 1 0.0 9.22317348526 -13.49 0.0
421 211 1 0.0 10.4529295586 -14.2 0.0
422 211 1 0.0 11.682685632 -13.49 0.0
423 212 1 0.0 12.9124417054 -14.2 0.0
424 212 1 0.0 14.1421977788 -13.49 0.0
425 213 1 0.0 15.3719538521 -14.2 0.0
426 213 1 0.0 16.6017099255 -13.49 0.0
427 214 1 0.0 17.8314659989 -14.2 0.0
428 214 1 0.0 19.0612220723 -13.49 0.0
429 215 1 0.0 20.2909781456 -14.2 0.0
430 215 1 0.0 21.520734219 -13.49 0.0
431 216 1 0.0 22.7504902924 -14.2 0.0
432 216 1 0.0 23.9802463657 -13.49 0.0
433 217 1 0.0 -39.9670694497 -12.07 0.0
434 217 1 0.0 -38.7373133763 -11.36 0.0
435 218 1 0.0 -37.5075573029 -12.07 0.0
436 218 1 0.0 -36.2778012296 -11.36 0.0
437 219 1 0.0 -35.0480451562 -12.07 0.0
438 219 1 0.0 -33.8182890828 -11.36 0.0
439 220 1 0.0 -32.5885330095 -12.07 0.0
440 220 1 0.0 -31.3587769361 -11.36 0.0
441 221 1 0.0 -30.1290208627 -12.07 0.0
442 221 1 0.0 -28.8992647893 -11.36 0.0
443 222 1 0.0 -27.669508716 -12.07 0.0
444 222 1 0.0 -26.4397526426 -11.36 0.0
445 223 1 0.0 -25.2099965692 -12.07 0.0
446 223 1 0.0 -23.9802404958 -11.36 0.0
447 224 1 0.0 -22.7504844225 -12.07 0.0
448 224 1 0.0 -21.5207283491 -11.36 0.0
449 225 1 0.0 -20.2909722757 -12.07 0.0
450 225 1 0.0 -19.0612162023 -11.36 0.0
451 226 1 0.0 -17.831460129 -12.07 0.0
452 226 1 0.0 -16.6017040556 -11.36 0.0
453 227 1 0.0 -15.3719479822 -12.07 0.0
454 227 1 0.0 -14.1421919088 -11.36 0.0
455 228 1 0.0 -12.9124358355 -12.07 0.0
456 228 1 0.0 -11.6826797621 -11.36 0.0
457 229 1 0.0 -10.4529236887 -12.07 0.0
458 229 1 0.0 -9.22316761535 -11.36 0.0
459 230 1 0.0 -7.99341154197 -12.07 0.0
460 230 1 0.0 -6.7636554686 -11.36 0.0
461 231 1 0.0 -5.53389939523 -12.07 0.0
462 231 1 0.0 -4.30414332185 -11.36 0.0
463 232 1 0.0 -3.07438724848 -12.07 0.0
464 232 1 0.0 -1.8446311751 -11.36 0.0
465 233 1 0.0 -0.614875101731 -12.07 0.0
466 233 1 0.0 0.614880971643 -11.36 0.0
467 234 1 0.0 1.84463704502 -12.07 0.0
468 234 1 0.0 3.07439311839 -11.36 0.0
469 235 1 0.0 4.30414919176 -12.07 0.0
470 235 1 0.0 5.53390526514 -11.36 0.0
471 236 1 0.0 6.76366133851 -12.07 0.0
472 236 1 0.0 7.99341741189 -11.36 0.0
473 237 1 0.0 9.22317348526 -12.07 0.0
474 237 1 0.0 10.4529295586 -11.36 0.0
475 238 1 0.0 11.682685632 -12.07 0.0
476 238 1 0.0 12.9124417054 -11.36 0.0
477 239 1 0.0 14.1421977788 -12.07 0.0
478 239 1 0.0 15.3719538521 -11.36 0.0
479 240 1 0.0 16.6017099255 -12.07 0.0
480 240 1 0.0 17.8314659989 -11.36 0.0
481 241 1 0.0 19.0612220723 -12.07 0.0
482 241 1 0.0 20.2909781456 -11.36 0.0
483 242 1 0.0 21.520734219 -12.07 0.0
484 242 1 0.0 22.7504902924 -11.36 0.0
485 243 1 0.0 23.9802463657 -12.07 0.0
486 243 1 0.0 25.2100024391 -11.36 0.0
487 244 1 0.0 -38.7373133763 -9.94 0.0
488 244 1 0.0 -37.5075573029 -9.23 0.0
489 245 1 0.0 -36.2778012296 -9.94 0.0
490 245 1 0.0 -35.0480451562 -9.23 0.0
491 246 1 0.0 -33.8182890828 -9.94 0.0
492 246 1 0.0 -32.5885330095 -9.23 0.0
493 247 1 0.0 -31.3587769361 -9.94 0.0
494 247 1 0.0 -30.1290208627 -9.23 0.0
495 248 1 0.0 -28.8992647893 -9.94 0.0
496 248 1 0.0 -27.669508716 -9.23 0.0
497 249 1 0.0 -26.4397526426 -9.94 0.0
498 249 1 0.0 -25.2099965692 -9.23 0.0
499 250 1 0.0 -23.9802404958 -9.94 0.0
500 250 1 0.0 -22.7504844225 -9.23 0.0
501 251 1 0.0 -21.5207283491 -9.94 0.0
502 251 1 0.0 -20.2909722757 -9.23 0.0
503 252 1 0.0 -19.0612162023 -9.94 0.0
504 252 1 0.0 -17.831460129 -9.23 0.0
505 253 1 0.0 -16.6017040556 -9.94 0.0
506 253 1 0.0 -15.3719479822 -9.23 0.0
507 254 1 0.0 -14.1421919088 -9.94 0.0
508 254 1 0.0 -12.9124358355 -9.23 0.0
509 255 1 0.0 -11.6826797621 -9.94 0.0
510 255 1 0.0 -10.4529236887 -9.23 0.0
511 256 1 0.0 -9.22316761535 -9.94 0.0
512 256 1 0.0 -7.99341154197 -9.23 0.0
513 257 1 0.0 -6.7636554686 -9.94 0.0
514 257 1 0.0 -5.53389939523 -9.23 0.0
515 258 1 0.0 -4.30414332185 -9.94 0.0
516 258 1 0.0 -3.07438724848 -9.23 0.0
517 259 1 0.0 -1.8446311751 -9.94 0.0
518 259 1 0.0 -0.614875101731 -9.23 0.0
519 260 1 0.0 0.614880971643 -9.94 0.0
520 260 1 0.0 1.84463704502 -9.23 0.0
521 261 1 0.0 3.07439311839 -9.94 0.0
522 261 1 0.0 4.30414919176 -9.23 0.0
523 262 1 0.0 5.53390526514 -9.94 0.0
524 262 1 0.0 6.76366133851 -9.23 0.0
525 263 1 0.0 7.99341741189 -9.94 0.0
526 263 1 0.0 9.22317348526 -9.23 0.0
527 264 1 0.0 10.4529295586 -9.94 0.0
528 264 1 0.0 11.682685632 -9.23 0.0
529 265 1 0.0 12.9124417054 -9.94 0.0
530 265 1 0.0 14.1421977788 -9.23 0.0
531 266 1 0.0 15.3719538521 -9.94 0.0
532 266 1 0.0 16.6017099255 -9.23 0.0
533 267 1 0.0 17.8314659989 -9.94 0.0
534 267 1 0.0 19.0612220723 -9.23 0.0
535 268 1 0.0 20.2909781456 -9.94 0.0
536 268 1 0.0 21.520734219 -9.23 0.0
537 269 1 0.0 22.7504902924 -9.94 0.0
538 269 1 0.0 23.9802463657 -9.23 0.0
539 270 1 0.0 25.2100024391 -9.94 0.0
540 270 1 0.0 26.4397585125 -9.23 0.0
541 271 1 0.0 -37.5075573029 -7.81 0.0
542 271 1 0.0 -36.2778012296 -7.1 0.0
543 272 1 0.0 -35.0480451562 -7.81 0.0
544 272 1 0.0 -33.8182890828 -7.1 0.0
545 273 1 0.0 -32.5885330095 -7.81 0.0
546 273 1 0.0 -31.3587769361 -7.1 0.0
547 274 1 0.0 -30.1290208627 -7.81 0.0
548 274 1 0.0 -28.8992647893 -7.1 0.0
549 275 1 0.0 -27.669508716 -7.81 0.0
550 275 1 0.0 -26.4397526426 -7.1 0.0
551 276 1 0.0 -25.2099965692 -7.81 0.0
552 276 1 0.0 -23.9802404958 -7.1 0.0
553 277 1 0.0 -22.7504844225 -7.81 0.0
554 277 1 0.0 -21.5207283491 -7.1 0.0
555 278 1 0.0 -20.2909722757 -7.81 0.0
556 278 1 0.0 -19.0612162023 -7.1 0.0
557 279 1 0.0 -17.831460129 -7.81 0.0
558 279 1 0.0 -16.6017040556 -7.1 0.0
559 280 1 0.0 -15.3719479822 -7.81 0.0
560 280 1 0.0 -14.1421919088 -7.1 0.0
561 281 1 0.0 -12.9124358355 -7.81 0.0
562 281 1 0.0 -11.6826797621 -7.1 0.0
563 282 1 0.0 -10.4529236887 -7.81 0.0
564 282 1 0.0 -9.22316761535 -7.1 0.0
565 283 1 0.0 -7.99341154197 -7.81 0.0
566 283 1 0.0 -6.7636554686 -7.1 0.0
567 284 1 0.0 -5.53389939523 -7.81 0.0
568 284 1 0.0 -4.30414332185 -7.1 0.0
569 285 1 0.0 -3.07438724848 -7.81 0.0
570 286 1 0.0 4.30414919176 -7.81 0.0
571 286 1 0.0 5.53390526514 -7.1 0.0
572 287 1 0.0 6.76366133851 -7.81 0.0
573 287 1 0.0 7.99341741189 -7.1 0.0
574 288 1 0.0 9.22317348526 -7.81 0.0
575 288 1 0.0 10.4529295586 -7.1 0.0
576 289 1 0.0 11.682685632 -7.81 0.0
577 289 1 0.0 12.9124417054 -7.1 0.0
578 290 1 0.0 14.1421977788 -7.81 0.0
579 290 1 0.0 15.3719538521 -7.1 0.0
580 291 1 0.0 16.6017099255 -7.81 0.0
581 291 1 0.0 17.8314659989 -7.1 0.0
582 292 1 0.0 19.0612220723 -7.81 0.0
583 292 1 0.0 20.2909781456 -7.1 0.0
584 293 1 0.0 21.520734219 -7.81 0.0
585 293 1 0.0 22.7504902924 -7.1 0.0
586 294 1 0.0 23.9802463657 -7.81 0.0
587 294 1 0.0 25.2100024391 -7.1 0.0
588 295 1 0.0 26.4397585125 -7.81 0.0
589 295 1 0.0 27.6695145859 -7.1 0.0
590 296 1 0.0 -36.2778012296 -5.68 0.0
591 296 1 0.0 -35.0480451562 -4.97 0.0
592 297 1 0.0 -33.8182890828 -5.68 0.0
593 297 1 0.0 -32.5885330095 -4.97 0.0
594 298 1 0.0 -31.3587769361 -5.68 0.0
595 298 1 0.0 -30.1290208627 -4.97 0.0
596 299 1 0.0 -28.8992647893 -5.68 0.0
597 299 1 0.0 -27.669508716 -4.97 0.0
598 300 1 0.0 -26.4397526426 -5.68 0.0
599 300 1 0.0 -25.2099965692 -4.97 0.0
600 301 1 0.0 -23.9802404958 -5.68 0.0
601 301 1 0.0 -22.7504844225 -4.97 0.0
602 302 1 0.0 -21.5207283491 -5.68 0.0
603 302 1 0.0 -20.2909722757 -4.97 0.0
604 303 1 0.0 -19.0612162023 -5.68 0.0
605 303 1 0.0 -17.831460129 -4.97 0.0
606 304 1 0.0 -16.6017040556 -5.68 0.0
607 304 1 0.0 -15.3719479822 -4.97 0.0
608 305 1 0.0 -14.1421919088 -5.68 0.0
609 305 1 0.0 -12.9124358355 -4.97 0.0
610 306 1 0.0 -11.6826797621 -5.68 0.0
611 306 1 0.0 -10.4529236887 -4.97 0.0
612 307 1 0.0 -9.22316761535 -5.68 0.0
613 307 1 0.0 -7.99341154197 -4.97 0.0
614 308 1 0.0 -6.7636554686 -5.68 0.0
615 309 1 0.0 6.76366133851 -4.97 0.0
616 310 1 0.0 7.99341741189 -5.68 0.0
617 310 1 0.0 9.22317348526 -4.97 0.0
618 311 1 0.0 10.4529295586 -5.68 0.0
619 311 1 0.0 11.682685632 -4.97 0.0
620 312 1 0.0 12.9124417054 -5.68 0.0
621 312 1 0.0 14.1421977788 -4.97 0.0
622 313 1 0.0 15.3719538521 -5.68 0.0
623 313 1 0.0 16.6017099255 -4.97 0.0
624 314 1 0.0 17.8314659989 -5.68 0.0
625 314 1 0.0 19.0612220723 -4.97 0.0
626 315 1 0.0 20.2909781456 -5.68 0.0
627 315 1 0.0 21.520734219 -4.97 0.0
628 316 1 0.0 22.7504902924 -5.68 0.0
629 316 1 0.0 23.9802463657 -4.97 0.0
630 317 1 0.0 25.2100024391 -5.68 0.0
631 317 1 0.0 26.4397585125 -4.97 0.0
632 318 1 0.0 27.6695145859 -5.68 0.0
633 318 1 0.0 28.8992706592 -4.97 0.0
634 319 1 0.0 -35.0480451562 -3.55 0.0
635 319 1 0.0 -33.8182890828 -2.84 0.0
636 320 1 0.0 -32.5885330095 -3.55 0.0
637 320 1 0.0 -31.3587769361 -2.84 0.0
638 321 1 0.0 -30.1290208627 -3.55 0.0
639 321 1 0.0 -28.8992647893 -2.84 0.0
640 322 1 0.0 -27.669508716 -3.55 0.0
641 322 1 0.0 -26.4397526426 -2.84 0.0
642 323 1 0.0 -25.2099965692 -3.55 0.0
643 323 1 0.0 -23.9802404958 -2.84 0.0
644 324 1 0.0 -22.7504844225 -3.55 0.0
645 324 1 0.0 -21.5207283491 -2.84 0.0
646 325 1 0.0 -20.2909722757 -3.55 0.0
647 325 1 0.0 -19.0612162023 -2.84 0.0
648 326 1 0.0 -17.831460129 -3.55 0.0
649 326 1 0.0 -16.6017040556 -2.84 0.0
650 327 1 0.0 -15.3719479822 -3.55 0.0
651 327 1 0.0 -14.1421919088 -2.84 0.0
652 328 1 0.0 -12.9124358355 -3.55 0.0
653 328 1 0.0 -11.6826797621 -2.84 0.0
654 329 1 0.0 -10.4529236887 -3.55 0.0
655 329 1 0.0 -9.22316761535 -2.84 0.0
656 330 1 0.0 -7.99341154197 -3.55 0.0
657 331 1 0.0 7.99341741189 -2.84 0.0
658 332 1 0.0 9.22317348526 -3.55 0.0
659 332 1 0.0 10.4529295586 -2.84 0.0
660 333 1 0.0 11.682685632 -3.55 0.0
661 333 1 0.0 12.9124417054 -2.84 0.0
662 334 1 0.0 14.1421977788 -3.55 0.0
663 334 1 0.0 15.3719538521 -2.84 0.0
664 335 1 0.0 16.6017099255 -3.55 0.0
665 335 1 0.0 17.8314659989 -2.84 0.0
666 336 1 0.0 19.0612220723 -3.55 0.0
667 336 1 0.0 20.2909781456 -2.84 0.0
668 337 1 0.0 21.520734219 -3.55 0.0
669 337 1 0.0 22.7504902924 -2.84 0.0
670 338 1 0.0 23.9802463657 -3.55 0.0
671 338 1 0.0 25.2100024391 -2.84 0.0
672 339 1 0.0 26.4397585125 -3.55 0.0
673 339 1 0.0 27.6695145859 -2.84 0.0
674 340 1 0.0 28.8992706592 -3.55 0.0
675 340 1 0.0 30.1290267326 -2.84 0.0
676 341 1 0.0 -33.8182890828 -1.42 0.0
677 341 1 0.0 -32.5885330095 -0.71 0.0
678 342 1 0.0 -31.3587769361 -1.42 0.0
679 342 1 0.0 -30.1290208627 -0.71 0.0
680 343 1 0.0 -28.8992647893 -1.42 0.0
681 343 1 0.0 -27.669508716 -0.71 0.0
682 344 1 0.0 -26.4397526426 -1.42 0.0
683 344 1 0.0 -25.2099965692 -0.71 0.0
684 345 1 0.0 -23.9802404958 -1.42 0.0
685 345 1 0.0 -22.7504844225 -0.71 0.0
686 346 1 0.0 -21.5207283491 -1.42 0.0
687 346 1 0.0 -20.2909722757 -0.71 0.0
688 347 1 0.0 -19.0612162023 -1.42 0.0
689 347 1 0.0 -17.831460129 -0.71 0.0
690 348 1 0.0 -16.6017040556 -1.42 0.0
691 348 1 0.0 -15.3719479822 -0.71 0.0
692 349 1 0.0 -14.1421919088 -1.42 0.0
693 349 1 0.0 -12.9124358355 -0.71 0.0
694 350 1 0.0 -11.6826797621 -1.42 0.0
695 350 1 0.0 -10.4529236887 -0.71 0.0
696 351 1 0.0 -9.22316761535 -1.42 0.0
697 352 1 0.0 9.22317348526 -0.71 0.0
698 353 1 0.0 10.4529295586 -1.42 0.0
699 353 1 0.0 11.682685632 -0.71 0.0
700 354 1 0.0 12.9124417054 -1.42 0.0
701 354 1 0.0 14.1421977788 -0.71 0.0
702 355 1 0.0 15.3719538521 -1.42 0.0
703 355 1 0.0 16.6017099255 -0.71 0.0
704 356 1 0.0 17.8314659989 -1.42 0.0
705 356 1 0.0 19.0612220723 -0.71 0.0
706 357 1 0.0 20.2909781456 -1.42 0.0
707 357 1 0.0 21.520734219 -0.71 0.0
708 358 1 0.0 22.7504902924 -1.42 0.0
709 358 1 0.0 23.9802463657 -0.71 0.0
710 359 1 0.0 25.2100024391 -1.42 0.0
711 359 1 0.0 26.4397585125 -0.71 0.0
712 360 1 0.0 27.6695145859 -1.42 0.0
713 360 1 0.0 28.8992706592 -0.71 0.0
714 361 1 0.0 30.1290267326 -1.42 0.0
715 361 1 0.0 31.358782806 -0.71 0.0
716 362 1 0.0 -32.5885330095 0.71 0.0
717 362 1 0.0 -31.3587769361 1.42 0.0
718 363 1 0.0 -30.1290208627 0.71 0.0
719 363 1 0.0 -28.8992647893 1.42 0.0
720 364 1 0.0 -27.669508716 0.71 0.0
721 364 1 0.0 -26.4397526426 1.42 0.0
722 365 1 0.0 -25.2099965692 0.71 0.0
723 365 1 0.0 -23.9802404958 1.42 0.0
724 366 1 0.0 -22.7504844225 0.71 0.0
725 366 1 0.0 -21.5207283491 1.42 0.0
726 367 1 0.0 -20.2909722757 0.71 0.0
727 367 1 0.0 -19.0612162023 1.42 0.0
728 368 1 0.0 -17.831460129 0.71 0.0
729 368 1 0.0 -16.6017040556 1.42 0.0
730 369 1 0.0 -15.3719479822 0.71 0.0
731 369 1 0.0 -14.1421919088 1.42 0.0
732 370 1 0.0 -12.9124358355 0.71 0.0
733 370 1 0.0 -11.6826797621 1.42 0.0
734 371 1 0.0 -10.4529236887 0.71 0.0
735 371 1 0.0 -9.22316761535 1.42 0.0
736 372 1 0.0 9.22317348526 0.71 0.0
737 372 1 0.0 10.4529295586 1.42 0.0
738 373 1 0.0 11.682685632 0.71 0.0
739 373 1 0.0 12.9124417054 1.42 0.0
740 374 1 0.0 14.1421977788 0.71 0.0
741 374 1 0.0 15.3719538521 1.42 0.0
742 375 1 0.0 16.6017099255 0.71 0.0
743 375 1 0.0 17.8314659989 1.42 0.0
744 376 1 0.0 19.0612220723 0.71 0.0
745 376 1 0.0 20.2909781456 1.42 0.0
746 377 1 0.0 21.520734219 0.71 0.0
747 377 1 0.0 22.7504902924 1.42 0.0
748 378 1 0.0 23.9802463657 0.71 0.0
749 378 1 0.0 25.2100024391 1.42 0.0
750 379 1 0.0 26.4397585125 0.71 0.0
751 379 1 0.0 27.6695145859 1.42 0.0
752 380 1 0.0 28.8992706592 0.71 0.0
753 380 1 0.0 30.1290267326 1.42 0.0
754 381 1 0.0 31.358782806 0.71 0.0
755 381 1 0.0 32.5885388794 1.42 0.0
756 382 1 0.0 -31.3587769361 2.84 0.0
757 382 1 0.0 -30.1290208627 3.55 0.0
758 383 1 0.0 -28.8992647893 2.84 0.0
759 383 1 0.0 -27.669508716 3.55 0.0
760 384 1 0.0 -26.4397526426 2.84 0.0
761 384 1 0.0 -25.2099965692 3.55 0.0
762 385 1 0.0 -23.9802404958 2.84 0.0
763 385 1 0.0 -22.7504844225 3.55 0.0
764 386 1 0.0 -21.5207283491 2.84 0.0
765 386 1 0.0 -20.2909722757 3.55 0.0
766 387 1 0.0 -19.0612162023 2.84 0.0
767 387 1 0.0 -17.831460129 3.55 0.0
768 388 1 0.0 -16.6017040556 2.84 0.0