LAMMPS Description

     48922  atoms
     28224  bonds
     14112  angles
     0  dihedrals
     0  impropers

     3  atom types
     1  bond types
     1  angle types

  -4.058195e+01 4.058195e+01 xlo xhi
  -3.621000e+01 3.621000e+01 ylo yhi
  -4.899000e+01 1.469700e+02 zlo zhi

Masses

    1  12.0
    2 15.9994
    3 1.008

Atoms # full

1 1 1 0.0 -60.8729280367 -35.5 0.0
2 1 1 0.0 -59.6431719633 -34.79 0.0
3 2 1 0.0 -58.4134158899 -35.5 0.0
4 2 1 0.0 -57.1836598166 -34.79 0.0
5 3 1 0.0 -55.9539037432 -35.5 0.0
6 3 1 0.0 -54.7241476698 -34.79 0.0
7 4 1 0.0 -53.4943915964 -35.5 0.0
8 4 1 0.0 -52.2646355231 -34.79 0.0
9 5 1 0.0 -51.0348794497 -35.5 0.0
10 5 1 0.0 -49.8051233763 -34.79 0.0
11 6 1 0.0 -48.5753673029 -35.5 0.0
12 6 1 0.0 -47.3456112296 -34.79 0.0
13 7 1 0.0 -46.1158551562 -35.5 0.0
14 7 1 0.0 -44.8860990828 -34.79 0.0
15 8 1 0.0 -43.6563430095 -35.5 0.0
16 8 1 0.0 -42.4265869361 -34.79 0.0
17 9 1 0.0 -41.1968308627 -35.5 0.0
18 9 1 0.0 -39.9670747893 -34.79 0.0
19 10 1 0.0 -38.737318716 -35.5 0.0
20 10 1 0.0 -37.5075626426 -34.79 0.0
21 11 1 0.0 -36.2778065692 -35.5 0.0
22 11 1 0.0 -35.0480504958 -34.79 0.0
23 12 1 0.0 -33.8182944225 -35.5 0.0
24 12 1 0.0 -32.5885383491 -34.79 0.0
25 13 1 0.0 -31.3587822757 -35.5 0.0
26 13 1 0.0 -30.1290262023 -34.79 0.0
27 14 1 0.0 -28.899270129 -35.5 0.0
28 14 1 0.0 -27.6695140556 -34.79 0.0
29 15 1 0.0 -26.4397579822 -35.5 0.0
30 15 1 0.0 -25.2100019088 -34.79 0.0
31 16 1 0.0 -23.9802458355 -35.5 0.0
32 16 1 0.0 -22.7504897621 -34.79 0.0
33 17 1 0.0 -21.5207336887 -35.5 0.0
34 17 1 0.0 -20.2909776153 -34.79 0.0
35 18 1 0.0 -19.061221542 -35.5 0.0
36 18 1 0.0 -17.8314654686 -34.79 0.0
37 19 1 0.0 -16.6017093952 -35.5 0.0
38 19 1 0.0 -15.3719533219 -34.79 0.0
39 20 1 0.0 -14.1421972485 -35.5 0.0
40 20 1 0.0 -12.9124411751 -34.79 0.0
41 21 1 0.0 -11.6826851017 -35.5 0.0
42 21 1 0.0 -10.4529290284 -34.79 0.0
43 22 1 0.0 -9.22317295498 -35.5 0.0
44 22 1 0.0 -7.99341688161 -34.79 0.0
45 23 1 0.0 -6.76366080824 -35.5 0.0
46 23 1 0.0 -5.53390473486 -34.79 0.0
47 24 1 0.0 -4.30414866149 -35.5 0.0
48 24 1 0.0 -3.07439258811 -34.79 0.0
49 25 1 0.0 -1.84463651474 -35.5 0.0
50 25 1 0.0 -0.614880441366 -34.79 0.0
51 26 1 0.0 0.614875632008 -35.5 0.0
52 26 1 0.0 1.84463170538 -34.79 0.0
53 27 1 0.0 3.07438777876 -35.5 0.0
54 27 1 0.0 4.30414385213 -34.79 0.0
55 28 1 0.0 5.5338999255 -35.5 0.0
56 28 1 0.0 6.76365599888 -34.79 0.0
57 29 1 0.0 7.99341207225 -35.5 0.0
58 29 1 0.0 9.22316814563 -34.79 0.0
59 30 1 0.0 10.452924219 -35.5 0.0
60 30 1 0.0 11.6826802924 -34.79 0.0
61 31 1 0.0 12.9124363657 -35.5 0.0
62 31 1 0.0 14.1421924391 -34.79 0.0
63 32 1 0.0 15.3719485125 -35.5 0.0
64 32 1 0.0 16.6017045859 -34.79 0.0
65 33 1 0.0 17.8314606592 -35.5 0.0
66 33 1 0.0 19.0612167326 -34.79 0.0
67 34 1 0.0 -59.6431719633 -33.37 0.0
68 34 1 0.0 -58.4134158899 -32.66 0.0
69 35 1 0.0 -57.1836598166 -33.37 0.0
70 35 1 0.0 -55.9539037432 -32.66 0.0
71 36 1 0.0 -54.7241476698 -33.37 0.0
72 36 1 0.0 -53.4943915964 -32.66 0.0
73 37 1 0.0 -52.2646355231 -33.37 0.0
74 37 1 0.0 -51.0348794497 -32.66 0.0
75 38 1 0.0 -49.8051233763 -33.37 0.0
76 38 1 0.0 -48.5753673029 -32.66 0.0
77 39 1 0.0 -47.3456112296 -33.37 0.0
78 39 1 0.0 -46.1158551562 -32.66 0.0
79 40 1 0.0 -44.8860990828 -33.37 0.0
80 40 1 0.0 -43.6563430095 -32.66 0.0
81 41 1 0.0 -42.4265869361 -33.37 0.0
82 41 1 0.0 -41.1968308627 -32.66 0.0
83 42 1 0.0 -39.9670747893 -33.37 0.0
84 42 1 0.0 -38.737318716 -32.66 0.0
85 43 1 0.0 -37.5075626426 -33.37 0.0
86 43 1 0.0 -36.2778065692 -32.66 0.0
87 44 1 0.0 -35.0480504958 -33.37 0.0
88 44 1 0.0 -33.8182944225 -32.66 0.0
89 45 1 0.0 -32.5885383491 -33.37 0.0
90 45 1 0.0 -31.3587822757 -32.66 0.0
91 46 1 0.0 -30.1290262023 -33.37 0.0
92 46 1 0.0 -28.899270129 -32.66 0.0
93 47 1 0.0 -27.6695140556 -33.37 0.0
94 47 1 0.0 -26.4397579822 -32.66 0.0
95 48 1 0.0 -25.2100019088 -33.37 0.0
96 48 1 0.0 -23.9802458355 -32.66 0.0
97 49 1 0.0 -22.7504897621 -33.37 0.0
98 49 1 0.0 -21.5207336887 -32.66 0.0
99 50 1 0.0 -20.2909776153 -33.37 0.0
100 50 1 0.0 -19.061221542 -32.66 0.0
101 51 1 0.0 -17.8314654686 -33.37 0.0
102 51 1 0.0 -16.6017093952 -32.66 0.0
103 52 1 0.0 -15.3719533219 -33.37 0.0
104 52 1 0.0 -14.1421972485 -32.66 0.0
105 53 1 0.0 -12.9124411751 -33.37 0.0
106 53 1 0.0 -11.6826851017 -32.66 0.0
107 54 1 0.0 -10.4529290284 -33.37 0.0
108 54 1 0.0 -9.22317295498 -32.66 0.0
109 55 1 0.0 -7.99341688161 -33.37 0.0
110 55 1 0.0 -6.76366080824 -32.66 0.0
111 56 1 0.0 -5.53390473486 -33.37 0.0
112 56 1 0.0 -4.30414866149 -32.66 0.0
113 57 1 0.0 -3.07439258811 -33.37 0.0
114 57 1 0.0 -1.84463651474 -32.66 0.0
115 58 1 0.0 -0.614880441366 -33.37 0.0
116 58 1 0.0 0.614875632008 -32.66 0.0
117 59 1 0.0 1.84463170538 -33.37 0.0
118 59 1 0.0 3.07438777876 -32.66 0.0
119 60 1 0.0 4.30414385213 -33.37 0.0
120 60 1 0.0 5.5338999255 -32.66 0.0
121 61 1 0.0 6.76365599888 -33.37 0.0
122 61 1 0.0 7.99341207225 -32.66 0.0
123 62 1 0.0 9.22316814563 -33.37 0.0
124 62 1 0.0 10.452924219 -32.66 0.0
125 63 1 0.0 11.6826802924 -33.37 0.0
126 63 1 0.0 12.9124363657 -32.66 0.0
127 64 1 0.0 14.1421924391 -33.37 0.0
128 64 1 0.0 15.3719485125 -32.66 0.0
129 65 1 0.0 16.6017045859 -33.37 0.0
130 65 1 0.0 17.8314606592 -32.66 0.0
131 66 1 0.0 19.0612167326 -33.37 0.0
132 66 1 0.0 20.290972806 -32.66 0.0
133 67 1 0.0 -58.4134158899 -31.24 0.0
134 67 1 0.0 -57.1836598166 -30.53 0.0
135 68 1 0.0 -55.9539037432 -31.24 0.0
136 68 1 0.0 -54.7241476698 -30.53 0.0
137 69 1 0.0 -53.4943915964 -31.24 0.0
138 69 1 0.0 -52.2646355231 -30.53 0.0
139 70 1 0.0 -51.0348794497 -31.24 0.0
140 70 1 0.0 -49.8051233763 -30.53 0.0
141 71 1 0.0 -48.5753673029 -31.24 0.0
142 71 1 0.0 -47.3456112296 -30.53 0.0
143 72 1 0.0 -46.1158551562 -31.24 0.0
144 72 1 0.0 -44.8860990828 -30.53 0.0
145 73 1 0.0 -43.6563430095 -31.24 0.0
146 73 1 0.0 -42.4265869361 -30.53 0.0
147 74 1 0.0 -41.1968308627 -31.24 0.0
148 74 1 0.0 -39.9670747893 -30.53 0.0
149 75 1 0.0 -38.737318716 -31.24 0.0
150 75 1 0.0 -37.5075626426 -30.53 0.0
151 76 1 0.0 -36.2778065692 -31.24 0.0
152 76 1 0.0 -35.0480504958 -30.53 0.0
153 77 1 0.0 -33.8182944225 -31.24 0.0
154 77 1 0.0 -32.5885383491 -30.53 0.0
155 78 1 0.0 -31.3587822757 -31.24 0.0
156 78 1 0.0 -30.1290262023 -30.53 0.0
157 79 1 0.0 -28.899270129 -31.24 0.0
158 79 1 0.0 -27.6695140556 -30.53 0.0
159 80 1 0.0 -26.4397579822 -31.24 0.0
160 80 1 0.0 -25.2100019088 -30.53 0.0
161 81 1 0.0 -23.9802458355 -31.24 0.0
162 81 1 0.0 -22.7504897621 -30.53 0.0
163 82 1 0.0 -21.5207336887 -31.24 0.0
164 82 1 0.0 -20.2909776153 -30.53 0.0
165 83 1 0.0 -19.061221542 -31.24 0.0
166 83 1 0.0 -17.8314654686 -30.53 0.0
167 84 1 0.0 -16.6017093952 -31.24 0.0
168 84 1 0.0 -15.3719533219 -30.53 0.0
169 85 1 0.0 -14.1421972485 -31.24 0.0
170 85 1 0.0 -12.9124411751 -30.53 0.0
171 86 1 0.0 -11.6826851017 -31.24 0.0
172 86 1 0.0 -10.4529290284 -30.53 0.0
173 87 1 0.0 -9.22317295498 -31.24 0.0
174 87 1 0.0 -7.99341688161 -30.53 0.0
175 88 1 0.0 -6.76366080824 -31.24 0.0
176 88 1 0.0 -5.53390473486 -30.53 0.0
177 89 1 0.0 -4.30414866149 -31.24 0.0
178 89 1 0.0 -3.07439258811 -30.53 0.0
179 90 1 0.0 -1.84463651474 -31.24 0.0
180 90 1 0.0 -0.614880441366 -30.53 0.0
181 91 1 0.0 0.614875632008 -31.24 0.0
182 91 1 0.0 1.84463170538 -30.53 0.0
183 92 1 0.0 3.07438777876 -31.24 0.0
184 92 1 0.0 4.30414385213 -30.53 0.0
185 93 1 0.0 5.5338999255 -31.24 0.0
186 93 1 0.0 6.76365599888 -30.53 0.0
187 94 1 0.0 7.99341207225 -31.24 0.0
188 94 1 0.0 9.22316814563 -30.53 0.0
189 95 1 0.0 10.452924219 -31.24 0.0
190 95 1 0.0 11.6826802924 -30.53 0.0
191 96 1 0.0 12.9124363657 -31.24 0.0
192 96 1 0.0 14.1421924391 -30.53 0.0
193 97 1 0.0 15.3719485125 -31.24 0.0
194 97 1 0.0 16.6017045859 -30.53 0.0
195 98 1 0.0 17.8314606592 -31.24 0.0
196 98 1 0.0 19.0612167326 -30.53 0.0
197 99 1 0.0 20.290972806 -31.24 0.0
198 99 1 0.0 21.5207288794 -30.53 0.0
199 100 1 0.0 -57.1836598166 -29.11 0.0
200 100 1 0.0 -55.9539037432 -28.4 0.0
201 101 1 0.0 -54.7241476698 -29.11 0.0
202 101 1 0.0 -53.4943915964 -28.4 0.0
203 102 1 0.0 -52.2646355231 -29.11 0.0
204 102 1 0.0 -51.0348794497 -28.4 0.0
205 103 1 0.0 -49.8051233763 -29.11 0.0
206 103 1 0.0 -48.5753673029 -28.4 0.0
207 104 1 0.0 -47.3456112296 -29.11 0.0
208 104 1 0.0 -46.1158551562 -28.4 0.0
209 105 1 0.0 -44.8860990828 -29.11 0.0
210 105 1 0.0 -43.6563430095 -28.4 0.0
211 106 1 0.0 -42.4265869361 -29.11 0.0
212 106 1 0.0 -41.1968308627 -28.4 0.0
213 107 1 0.0 -39.9670747893 -29.11 0.0
214 107 1 0.0 -38.737318716 -28.4 0.0
215 108 1 0.0 -37.5075626426 -29.11 0.0
216 108 1 0.0 -36.2778065692 -28.4 0.0
217 109 1 0.0 -35.0480504958 -29.11 0.0
218 109 1 0.0 -33.8182944225 -28.4 0.0
219 110 1 0.0 -32.5885383491 -29.11 0.0
220 110 1 0.0 -31.3587822757 -28.4 0.0
221 111 1 0.0 -30.1290262023 -29.11 0.0
222 111 1 0.0 -28.899270129 -28.4 0.0
223 112 1 0.0 -27.6695140556 -29.11 0.0
224 112 1 0.0 -26.4397579822 -28.4 0.0
225 113 1 0.0 -25.2100019088 -29.11 0.0
226 113 1 0.0 -23.9802458355 -28.4 0.0
227 114 1 0.0 -22.7504897621 -29.11 0.0
228 114 1 0.0 -21.5207336887 -28.4 0.0
229 115 1 0.0 -20.2909776153 -29.11 0.0
230 115 1 0.0 -19.061221542 -28.4 0.0
231 116 1 0.0 -17.8314654686 -29.11 0.0
232 116 1 0.0 -16.6017093952 -28.4 0.0
233 117 1 0.0 -15.3719533219 -29.11 0.0
234 117 1 0.0 -14.1421972485 -28.4 0.0
235 118 1 0.0 -12.9124411751 -29.11 0.0
236 118 1 0.0 -11.6826851017 -28.4 0.0
237 119 1 0.0 -10.4529290284 -29.11 0.0
238 119 1 0.0 -9.22317295498 -28.4 0.0
239 120 1 0.0 -7.99341688161 -29.11 0.0
240 120 1 0.0 -6.76366080824 -28.4 0.0
241 121 1 0.0 -5.53390473486 -29.11 0.0
242 121 1 0.0 -4.30414866149 -28.4 0.0
243 122 1 0.0 -3.07439258811 -29.11 0.0
244 122 1 0.0 -1.84463651474 -28.4 0.0
245 123 1 0.0 -0.614880441366 -29.11 0.0
246 123 1 0.0 0.614875632008 -28.4 0.0
247 124 1 0.0 1.84463170538 -29.11 0.0
248 124 1 0.0 3.07438777876 -28.4 0.0
249 125 1 0.0 4.30414385213 -29.11 0.0
250 125 1 0.0 5.5338999255 -28.4 0.0
251 126 1 0.0 6.76365599888 -29.11 0.0
252 126 1 0.0 7.99341207225 -28.4 0.0
253 127 1 0.0 9.22316814563 -29.11 0.0
254 127 1 0.0 10.452924219 -28.4 0.0
255 128 1 0.0 11.6826802924 -29.11 0.0
256 128 1 0.0 12.9124363657 -28.4 0.0
257 129 1 0.0 14.1421924391 -29.11 0.0
258 129 1 0.0 15.3719485125 -28.4 0.0
259 130 1 0.0 16.6017045859 -29.11 0.0
260 130 1 0.0 17.8314606592 -28.4 0.0
261 131 1 0.0 19.0612167326 -29.11 0.0
262 131 1 0.0 20.290972806 -28.4 0.0
263 132 1 0.0 21.5207288794 -29.11 0.0
264 132 1 0.0 22.7504849527 -28.4 0.0
265 133 1 0.0 -55.9539037432 -26.98 0.0
266 133 1 0.0 -54.7241476698 -26.27 0.0
267 134 1 0.0 -53.4943915964 -26.98 0.0
268 134 1 0.0 -52.2646355231 -26.27 0.0
269 135 1 0.0 -51.0348794497 -26.98 0.0
270 135 1 0.0 -49.8051233763 -26.27 0.0
271 136 1 0.0 -48.5753673029 -26.98 0.0
272 136 1 0.0 -47.3456112296 -26.27 0.0
273 137 1 0.0 -46.1158551562 -26.98 0.0
274 137 1 0.0 -44.8860990828 -26.27 0.0
275 138 1 0.0 -43.6563430095 -26.98 0.0
276 138 1 0.0 -42.4265869361 -26.27 0.0
277 139 1 0.0 -41.1968308627 -26.98 0.0
278 139 1 0.0 -39.9670747893 -26.27 0.0
279 140 1 0.0 -38.737318716 -26.98 0.0
280 140 1 0.0 -37.5075626426 -26.27 0.0
281 141 1 0.0 -36.2778065692 -26.98 0.0
282 141 1 0.0 -35.0480504958 -26.27 0.0
283 142 1 0.0 -33.8182944225 -26.98 0.0
284 142 1 0.0 -32.5885383491 -26.27 0.0
285 143 1 0.0 -31.3587822757 -26.98 0.0
286 143 1 0.0 -30.1290262023 -26.27 0.0
287 144 1 0.0 -28.899270129 -26.98 0.0
288 144 1 0.0 -27.6695140556 -26.27 0.0
289 145 1 0.0 -26.4397579822 -26.98 0.0
290 145 1 0.0 -25.2100019088 -26.27 0.0
291 146 1 0.0 -23.9802458355 -26.98 0.0
292 146 1 0.0 -22.7504897621 -26.27 0.0
293 147 1 0.0 -21.5207336887 -26.98 0.0
294 147 1 0.0 -20.2909776153 -26.27 0.0
295 148 1 0.0 -19.061221542 -26.98 0.0
296 148 1 0.0 -17.8314654686 -26.27 0.0
297 149 1 0.0 -16.6017093952 -26.98 0.0
298 149 1 0.0 -15.3719533219 -26.27 0.0
299 150 1 0.0 -14.1421972485 -26.98 0.0
300 150 1 0.0 -12.9124411751 -26.27 0.0
301 151 1 0.0 -11.6826851017 -26.98 0.0
302 151 1 0.0 -10.4529290284 -26.27 0.0
303 152 1 0.0 -9.22317295498 -26.98 0.0
304 152 1 0.0 -7.99341688161 -26.27 0.0
305 153 1 0.0 -6.76366080824 -26.98 0.0
306 153 1 0.0 -5.53390473486 -26.27 0.0
307 154 1 0.0 -4.30414866149 -26.98 0.0
308 154 1 0.0 -3.07439258811 -26.27 0.0
309 155 1 0.0 -1.84463651474 -26.98 0.0
310 155 1 0.0 -0.614880441366 -26.27 0.0
311 156 1 0.0 0.614875632008 -26.98 0.0
312 156 1 0.0 1.84463170538 -26.27 0.0
313 157 1 0.0 3.07438777876 -26.98 0.0
314 157 1 0.0 4.30414385213 -26.27 0.0
315 158 1 0.0 5.5338999255 -26.98 0.0
316 158 1 0.0 6.76365599888 -26.27 0.0
317 159 1 0.0 7.99341207225 -26.98 0.0
318 159 1 0.0 9.22316814563 -26.27 0.0
319 160 1 0.0 10.452924219 -26.98 0.0
320 160 1 0.0 11.6826802924 -26.27 0.0
321 161 1 0.0 12.9124363657 -26.98 0.0
322 161 1 0.0 14.1421924391 -26.27 0.0
323 162 1 0.0 15.3719485125 -26.98 0.0
324 162 1 0.0 16.6017045859 -26.27 0.0
325 163 1 0.0 17.8314606592 -26.98 0.0
326 163 1 0.0 19.0612167326 -26.27 0.0
327 164 1 0.0 20.290972806 -26.98 0.0
328 164 1 0.0 21.5207288794 -26.27 0.0
329 165 1 0.0 22.7504849527 -26.98 0.0
330 165 1 0.0 23.9802410261 -26.27 0.0
331 166 1 0.0 -54.7241476698 -24.85 0.0
332 166 1 0.0 -53.4943915964 -24.14 0.0
333 167 1 0.0 -52.2646355231 -24.85 0.0
334 167 1 0.0 -51.0348794497 -24.14 0.0
335 168 1 0.0 -49.8051233763 -24.85 0.0
336 168 1 0.0 -48.5753673029 -24.14 0.0
337 169 1 0.0 -47.3456112296 -24.85 0.0
338 169 1 0.0 -46.1158551562 -24.14 0.0
339 170 1 0.0 -44.8860990828 -24.85 0.0
340 170 1 0.0 -43.6563430095 -24.14 0.0
341 171 1 0.0 -42.4265869361 -24.85 0.0
342 171 1 0.0 -41.1968308627 -24.14 0.0
343 172 1 0.0 -39.9670747893 -24.85 0.0
344 172 1 0.0 -38.737318716 -24.14 0.0
345 173 1 0.0 -37.5075626426 -24.85 0.0
346 173 1 0.0 -36.2778065692 -24.14 0.0
347 174 1 0.0 -35.0480504958 -24.85 0.0
348 174 1 0.0 -33.8182944225 -24.14 0.0
349 175 1 0.0 -32.5885383491 -24.85 0.0
350 175 1 0.0 -31.3587822757 -24.14 0.0
351 176 1 0.0 -30.1290262023 -24.85 0.0
352 176 1 0.0 -28.899270129 -24.14 0.0
353 177 1 0.0 -27.6695140556 -24.85 0.0
354 177 1 0.0 -26.4397579822 -24.14 0.0
355 178 1 0.0 -25.2100019088 -24.85 0.0
356 178 1 0.0 -23.9802458355 -24.14 0.0
357 179 1 0.0 -22.7504897621 -24.85 0.0
358 179 1 0.0 -21.5207336887 -24.14 0.0
359 180 1 0.0 -20.2909776153 -24.85 0.0
360 180 1 0.0 -19.061221542 -24.14 0.0
361 181 1 0.0 -17.8314654686 -24.85 0.0
362 181 1 0.0 -16.6017093952 -24.14 0.0
363 182 1 0.0 -15.3719533219 -24.85 0.0
364 182 1 0.0 -14.1421972485 -24.14 0.0
365 183 1 0.0 -12.9124411751 -24.85 0.0
366 183 1 0.0 -11.6826851017 -24.14 0.0
367 184 1 0.0 -10.4529290284 -24.85 0.0
368 184 1 0.0 -9.22317295498 -24.14 0.0
369 185 1 0.0 -7.99341688161 -24.85 0.0
370 185 1 0.0 -6.76366080824 -24.14 0.0
371 186 1 0.0 -5.53390473486 -24.85 0.0
372 186 1 0.0 -4.30414866149 -24.14 0.0
373 187 1 0.0 -3.07439258811 -24.85 0.0
374 187 1 0.0 -1.84463651474 -24.14 0.0
375 188 1 0.0 -0.614880441366 -24.85 0.0
376 188 1 0.0 0.614875632008 -24.14 0.0
377 189 1 0.0 1.84463170538 -24.85 0.0
378 189 1 0.0 3.07438777876 -24.14 0.0
379 190 1 0.0 4.30414385213 -24.85 0.0
380 190 1 0.0 5.5338999255 -24.14 0.0
381 191 1 0.0 6.76365599888 -24.85 0.0
382 191 1 0.0 7.99341207225 -24.14 0.0
383 192 1 0.0 9.22316814563 -24.85 0.0
384 192 1 0.0 10.452924219 -24.14 0.0
385 193 1 0.0 11.6826802924 -24.85 0.0
386 193 1 0.0 12.9124363657 -24.14 0.0
387 194 1 0.0 14.1421924391 -24.85 0.0
388 194 1 0.0 15.3719485125 -24.14 0.0
389 195 1 0.0 16.6017045859 -24.85 0.0
390 195 1 0.0 17.8314606592 -24.14 0.0
391 196 1 0.0 19.0612167326 -24.85 0.0
392 196 1 0.0 20.290972806 -24.14 0.0
393 197 1 0.0 21.5207288794 -24.85 0.0
394 197 1 0.0 22.7504849527 -24.14 0.0
395 198 1 0.0 23.9802410261 -24.85 0.0
396 198 1 0.0 25.2099970995 -24.14 0.0
397 199 1 0.0 -53.4943915964 -22.72 0.0
398 199 1 0.0 -52.2646355231 -22.01 0.0
399 200 1 0.0 -51.0348794497 -22.72 0.0
400 200 1 0.0 -49.8051233763 -22.01 0.0
401 201 1 0.0 -48.5753673029 -22.72 0.0
402 201 1 0.0 -47.3456112296 -22.01 0.0
403 202 1 0.0 -46.1158551562 -22.72 0.0
404 202 1 0.0 -44.8860990828 -22.01 0.0
405 203 1 0.0 -43.6563430095 -22.72 0.0
406 203 1 0.0 -42.4265869361 -22.01 0.0
407 204 1 0.0 -41.1968308627 -22.72 0.0
408 204 1 0.0 -39.9670747893 -22.01 0.0
409 205 1 0.0 -38.737318716 -22.72 0.0
410 205 1 0.0 -37.5075626426 -22.01 0.0
411 206 1 0.0 -36.2778065692 -22.72 0.0
412 206 1 0.0 -35.0480504958 -22.01 0.0
413 207 1 0.0 -33.8182944225 -22.72 0.0
414 207 1 0.0 -32.5885383491 -22.01 0.0
415 208 1 0.0 -31.3587822757 -22.72 0.0
416 208 1 0.0 -30.1290262023 -22.01 0.0
417 209 1 0.0 -28.899270129 -22.72 0.0
418 209 1 0.0 -27.6695140556 -22.01 0.0
419 210 1 0.0 -26.4397579822 -22.72 0.0
420 210 1 0.0 -25.2100019088 -22.01 0.0
421 211 1 0.0 -23.9802458355 -22.72 0.0
422 211 1 0.0 -22.7504897621 -22.01 0.0
423 212 1 0.0 -21.5207336887 -22.72 0.0
424 212 1 0.0 -20.2909776153 -22.01 0.0
425 213 1 0.0 -19.061221542 -22.72 0.0
426 213 1 0.0 -17.8314654686 -22.01 0.0
427 214 1 0.0 -16.6017093952 -22.72 0.0
428 214 1 0.0 -15.3719533219 -22.01 0.0
429 215 1 0.0 -14.1421972485 -22.72 0.0
430 215 1 0.0 -12.9124411751 -22.01 0.0
431 216 1 0.0 -11.6826851017 -22.72 0.0
432 216 1 0.0 -10.4529290284 -22.01 0.0
433 217 1 0.0 -9.22317295498 -22.72 0.0
434 217 1 0.0 -7.99341688161 -22.01 0.0
435 218 1 0.0 -6.76366080824 -22.72 0.0
436 218 1 0.0 -5.53390473486 -22.01 0.0
437 219 1 0.0 -4.30414866149 -22.72 0.0
438 219 1 0.0 -3.07439258811 -22.01 0.0
439 220 1 0.0 -1.84463651474 -22.72 0.0
440 220 1 0.0 -0.614880441366 -22.01 0.0
441 221 1 0.0 0.614875632008 -22.72 0.0
442 221 1 0.0 1.84463170538 -22.01 0.0
443 222 1 0.0 3.07438777876 -22.72 0.0
444 222 1 0.0 4.30414385213 -22.01 0.0
445 223 1 0.0 5.5338999255 -22.72 0.0
446 223 1 0.0 6.76365599888 -22.01 0.0
447 224 1 0.0 7.99341207225 -22.72 0.0
448 224 1 0.0 9.22316814563 -22.01 0.0
449 225 1 0.0 10.452924219 -22.72 0.0
450 225 1 0.0 11.6826802924 -22.01 0.0
451 226 1 0.0 12.9124363657 -22.72 0.0
452 226 1 0.0 14.1421924391 -22.01 0.0
453 227 1 0.0 15.3719485125 -22.72 0.0
454 227 1 0.0 16.6017045859 -22.01 0.0
455 228 1 0.0 17.8314606592 -22.72 0.0
456 228 1 0.0 19.0612167326 -22.01 0.0
457 229 1 0.0 20.290972806 -22.72 0.0
458 229 1 0.0 21.5207288794 -22.01 0.0
459 230 1 0.0 22.7504849527 -22.72 0.0
460 230 1 0.0 23.9802410261 -22.01 0.0
461 231 1 0.0 25.2099970995 -22.72 0.0
462 231 1 0.0 26.4397531729 -22.01 0.0
463 232 1 0.0 -52.2646355231 -20.59 0.0
464 232 1 0.0 -51.0348794497 -19.88 0.0
465 233 1 0.0 -49.8051233763 -20.59 0.0
466 233 1 0.0 -48.5753673029 -19.88 0.0
467 234 1 0.0 -47.3456112296 -20.59 0.0
468 234 1 0.0 -46.1158551562 -19.88 0.0
469 235 1 0.0 -44.8860990828 -20.59 0.0
470 235 1 0.0 -43.6563430095 -19.88 0.0
471 236 1 0.0 -42.4265869361 -20.59 0.0
472 236 1 0.0 -41.1968308627 -19.88 0.0
473 237 1 0.0 -39.9670747893 -20.59 0.0
474 237 1 0.0 -38.737318716 -19.88 0.0
475 238 1 0.0 -37.5075626426 -20.59 0.0
476 238 1 0.0 -36.2778065692 -19.88 0.0
477 239 1 0.0 -35.0480504958 -20.59 0.0
478 239 1 0.0 -33.8182944225 -19.88 0.0
479 240 1 0.0 -32.5885383491 -20.59 0.0
480 240 1 0.0 -31.3587822757 -19.88 0.0
481 241 1 0.0 -30.1290262023 -20.59 0.0
482 241 1 0.0 -28.899270129 -19.88 0.0
483 242 1 0.0 -27.6695140556 -20.59 0.0
484 242 1 0.0 -26.4397579822 -19.88 0.0
485 243 1 0.0 -25.2100019088 -20.59 0.0
486 243 1 0.0 -23.9802458355 -19.88 0.0
487 244 1 0.0 -22.7504897621 -20.59 0.0
488 244 1 0.0 -21.5207336887 -19.88 0.0
489 245 1 0.0 -20.2909776153 -20.59 0.0
490 245 1 0.0 -19.061221542 -19.88 0.0
491 246 1 0.0 -17.8314654686 -20.59 0.0
492 246 1 0.0 -16.6017093952 -19.88 0.0
493 247 1 0.0 -15.3719533219 -20.59 0.0
494 247 1 0.0 -14.1421972485 -19.88 0.0
495 248 1 0.0 -12.9124411751 -20.59 0.0
496 248 1 0.0 -11.6826851017 -19.88 0.0
497 249 1 0.0 -10.4529290284 -20.59 0.0
498 249 1 0.0 -9.22317295498 -19.88 0.0
499 250 1 0.0 -7.99341688161 -20.59 0.0
500 250 1 0.0 -6.76366080824 -19.88 0.0
501 251 1 0.0 -5.53390473486 -20.59 0.0
502 251 1 0.0 -4.30414866149 -19.88 0.0
503 252 1 0.0 -3.07439258811 -20.59 0.0
504 252 1 0.0 -1.84463651474 -19.88 0.0
505 253 1 0.0 -0.614880441366 -20.59 0.0
506 253 1 0.0 0.614875632008 -19.88 0.0
507 254 1 0.0 1.84463170538 -20.59 0.0
508 254 1 0.0 3.07438777876 -19.88 0.0
509 255 1 0.0 4.30414385213 -20.59 0.0
510 255 1 0.0 5.5338999255 -19.88 0.0
511 256 1 0.0 6.76365599888 -20.59 0.0
512 256 1 0.0 7.99341207225 -19.88 0.0
513 257 1 0.0 9.22316814563 -20.59 0.0
514 257 1 0.0 10.452924219 -19.88 0.0
515 258 1 0.0 11.6826802924 -20.59 0.0
516 258 1 0.0 12.9124363657 -19.88 0.0
517 259 1 0.0 14.1421924391 -20.59 0.0
518 259 1 0.0 15.3719485125 -19.88 0.0
519 260 1 0.0 16.6017045859 -20.59 0.0
520 260 1 0.0 17.8314606592 -19.88 0.0
521 261 1 0.0 19.0612167326 -20.59 0.0
522 261 1 0.0 20.290972806 -19.88 0.0
523 262 1 0.0 21.5207288794 -20.59 0.0
524 262 1 0.0 22.7504849527 -19.88 0.0
525 263 1 0.0 23.9802410261 -20.59 0.0
526 263 1 0.0 25.2099970995 -19.88 0.0
527 264 1 0.0 26.4397531729 -20.59 0.0
528 264 1 0.0 27.6695092462 -19.88 0.0
529 265 1 0.0 -51.0348794497 -18.46 0.0
530 265 1 0.0 -49.8051233763 -17.75 0.0
531 266 1 0.0 -48.5753673029 -18.46 0.0
532 266 1 0.0 -47.3456112296 -17.75 0.0
533 267 1 0.0 -46.1158551562 -18.46 0.0
534 267 1 0.0 -44.8860990828 -17.75 0.0
535 268 1 0.0 -43.6563430095 -18.46 0.0
536 268 1 0.0 -42.4265869361 -17.75 0.0
537 269 1 0.0 -41.1968308627 -18.46 0.0
538 269 1 0.0 -39.9670747893 -17.75 0.0
539 270 1 0.0 -38.737318716 -18.46 0.0
540 270 1 0.0 -37.5075626426 -17.75 0.0
541 271 1 0.0 -36.2778065692 -18.46 0.0
542 271 1 0.0 -35.0480504958 -17.75 0.0
543 272 1 0.0 -33.8182944225 -18.46 0.0
544 272 1 0.0 -32.5885383491 -17.75 0.0
545 273 1 0.0 -31.3587822757 -18.46 0.0
546 273 1 0.0 -30.1290262023 -17.75 0.0
547 274 1 0.0 -28.899270129 -18.46 0.0
548 274 1 0.0 -27.6695140556 -17.75 0.0
549 275 1 0.0 -26.4397579822 -18.46 0.0
550 275 1 0.0 -25.2100019088 -17.75 0.0
551 276 1 0.0 -23.9802458355 -18.46 0.0
552 276 1 0.0 -22.7504897621 -17.75 0.0
553 277 1 0.0 -21.5207336887 -18.46 0.0
554 277 1 0.0 -20.2909776153 -17.75 0.0
555 278 1 0.0 -19.061221542 -18.46 0.0
556 278 1 0.0 -17.8314654686 -17.75 0.0
557 279 1 0.0 -16.6017093952 -18.46 0.0
558 279 1 0.0 -15.3719533219 -17.75 0.0
559 280 1 0.0 -14.1421972485 -18.46 0.0
560 280 1 0.0 -12.9124411751 -17.75 0.0
561 281 1 0.0 -11.6826851017 -18.46 0.0
562 281 1 0.0 -10.4529290284 -17.75 0.0
563 282 1 0.0 -9.22317295498 -18.46 0.0
564 282 1 0.0 -7.99341688161 -17.75 0.0
565 283 1 0.0 -6.76366080824 -18.46 0.0
566 283 1 0.0 -5.53390473486 -17.75 0.0
567 284 1 0.0 -4.30414866149 -18.46 0.0
568 284 1 0.0 -3.07439258811 -17.75 0.0
569 285 1 0.0 -1.84463651474 -18.46 0.0
570 285 1 0.0 -0.614880441366 -17.75 0.0
571 286 1 0.0 0.614875632008 -18.46 0.0
572 286 1 0.0 1.84463170538 -17.75 0.0
573 287 1 0.0 3.07438777876 -18.46 0.0
574 287 1 0.0 4.30414385213 -17.75 0.0
575 288 1 0.0 5.5338999255 -18.46 0.0
576 288 1 0.0 6.76365599888 -17.75 0.0
577 289 1 0.0 7.99341207225 -18.46 0.0
578 289 1 0.0 9.22316814563 -17.75 0.0
579 290 1 0.0 10.452924219 -18.46 0.0
580 290 1 0.0 11.6826802924 -17.75 0.0
581 291 1 0.0 12.9124363657 -18.46 0.0
582 291 1 0.0 14.1421924391 -17.75 0.0
583 292 1 0.0 15.3719485125 -18.46 0.0
584 292 1 0.0 16.6017045859 -17.75 0.0
585 293 1 0.0 17.8314606592 -18.46 0.0
586 293 1 0.0 19.0612167326 -17.75 0.0
587 294 1 0.0 20.290972806 -18.46 0.0
588 294 1 0.0 21.5207288794 -17.75 0.0
589 295 1 0.0 22.7504849527 -18.46 0.0
590 295 1 0.0 23.9802410261 -17.75 0.0
591 296 1 0.0 25.2099970995 -18.46 0.0
592 296 1 0.0 26.4397531729 -17.75 0.0
593 297 1 0.0 27.6695092462 -18.46 0.0
594 297 1 0.0 28.8992653196 -17.75 0.0
595 298 1 0.0 -49.8051233763 -16.33 0.0
596 298 1 0.0 -48.5753673029 -15.62 0.0
597 299 1 0.0 -47.3456112296 -16.33 0.0
598 299 1 0.0 -46.1158551562 -15.62 0.0
599 300 1 0.0 -44.8860990828 -16.33 0.0
600 300 1 0.0 -43.6563430095 -15.62 0.0
601 301 1 0.0 -42.4265869361 -16.33 0.0
602 301 1 0.0 -41.1968308627 -15.62 0.0
603 302 1 0.0 -39.9670747893 -16.33 0.0
604 302 1 0.0 -38.737318716 -15.62 0.0
605 303 1 0.0 -37.5075626426 -16.33 0.0
606 303 1 0.0 -36.2778065692 -15.62 0.0
607 304 1 0.0 -35.0480504958 -16.33 0.0
608 304 1 0.0 -33.8182944225 -15.62 0.0
609 305 1 0.0 -32.5885383491 -16.33 0.0
610 305 1 0.0 -31.3587822757 -15.62 0.0
611 306 1 0.0 -30.1290262023 -16.33 0.0
612 306 1 0.0 -28.899270129 -15.62 0.0
613 307 1 0.0 -27.6695140556 -16.33 0.0
614 307 1 0.0 -26.4397579822 -15.62 0.0
615 308 1 0.0 -25.2100019088 -16.33 0.0
616 308 1 0.0 -23.9802458355 -15.62 0.0
617 309 1 0.0 -22.7504897621 -16.33 0.0
618 309 1 0.0 -21.5207336887 -15.62 0.0
619 310 1 0.0 -20.2909776153 -16.33 0.0
620 310 1 0.0 -19.061221542 -15.62 0.0
621 311 1 0.0 -17.8314654686 -16.33 0.0
622 311 1 0.0 -16.6017093952 -15.62 0.0
623 312 1 0.0 -15.3719533219 -16.33 0.0
624 312 1 0.0 -14.1421972485 -15.62 0.0
625 313 1 0.0 -12.9124411751 -16.33 0.0
626 313 1 0.0 -11.6826851017 -15.62 0.0
627 314 1 0.0 -10.4529290284 -16.33 0.0
628 314 1 0.0 -9.22317295498 -15.62 0.0
629 315 1 0.0 -7.99341688161 -16.33 0.0
630 315 1 0.0 -6.76366080824 -15.62 0.0
631 316 1 0.0 -5.53390473486 -16.33 0.0
632 316 1 0.0 -4.30414866149 -15.62 0.0
633 317 1 0.0 -3.07439258811 -16.33 0.0
634 317 1 0.0 -1.84463651474 -15.62 0.0
635 318 1 0.0 -0.614880441366 -16.33 0.0
636 318 1 0.0 0.614875632008 -15.62 0.0
637 319 1 0.0 1.84463170538 -16.33 0.0
638 319 1 0.0 3.07438777876 -15.62 0.0
639 320 1 0.0 4.30414385213 -16.33 0.0
640 320 1 0.0 5.5338999255 -15.62 0.0
641 321 1 0.0 6.76365599888 -16.33 0.0
642 321 1 0.0 7.99341207225 -15.62 0.0
643 322 1 0.0 9.22316814563 -16.33 0.0
644 322 1 0.0 10.452924219 -15.62 0.0
645 323 1 0.0 11.6826802924 -16.33 0.0
646 323 1 0.0 12.9124363657 -15.62 0.0
647 324 1 0.0 14.1421924391 -16.33 0.0
648 324 1 0.0 15.3719485125 -15.62 0.0
649 325 1 0.0 16.6017045859 -16.33 0.0
650 325 1 0.0 17.8314606592 -15.62 0.0
651 326 1 0.0 19.0612167326 -16.33 0.0
652 326 1 0.0 20.290972806 -15.62 0.0
653 327 1 0.0 21.5207288794 -16.33 0.0
654 327 1 0.0 22.7504849527 -15.62 0.0
655 328 1 0.0 23.9802410261 -16.33 0.0
656 328 1 0.0 25.2099970995 -15.62 0.0
657 329 1 0.0 26.4397531729 -16.33 0.0
658 329 1 0.0 27.6695092462 -15.62 0.0
659 330 1 0.0 28.8992653196 -16.33 0.0
660 330 1 0.0 30.129021393 -15.62 0.0
661 331 1 0.0 -48.5753673029 -14.2 0.0
662 331 1 0.0 -47.3456112296 -13.49 0.0
663 332 1 0.0 -46.1158551562 -14.2 0.0
664 332 1 0.0 -44.8860990828 -13.49 0.0
665 333 1 0.0 -43.6563430095 -14.2 0.0
666 333 1 0.0 -42.4265869361 -13.49 0.0
667 334 1 0.0 -41.1968308627 -14.2 0.0
668 334 1 0.0 -39.9670747893 -13.49 0.0
669 335 1 0.0 -38.737318716 -14.2 0.0
670 335 1 0.0 -37.5075626426 -13.49 0.0
671 336 1 0.0 -36.2778065692 -14.2 0.0
672 336 1 0.0 -35.0480504958 -13.49 0.0
673 337 1 0.0 -33.8182944225 -14.2 0.0
674 337 1 0.0 -32.5885383491 -13.49 0.0
675 338 1 0.0 -31.3587822757 -14.2 0.0
676 338 1 0.0 -30.1290262023 -13.49 0.0
677 339 1 0.0 -28.899270129 -14.2 0.0
678 339 1 0.0 -27.6695140556 -13.49 0.0
679 340 1 0.0 -26.4397579822 -14.2 0.0
680 340 1 0.0 -25.2100019088 -13.49 0.0
681 341 1 0.0 -23.9802458355 -14.2 0.0
682 341 1 0.0 -22.7504897621 -13.49 0.0
683 342 1 0.0 -21.5207336887 -14.2 0.0
684 342 1 0.0 -20.2909776153 -13.49 0.0
685 343 1 0.0 -19.061221542 -14.2 0.0
686 343 1 0.0 -17.8314654686 -13.49 0.0
687 344 1 0.0 -16.6017093952 -14.2 0.0
688 344 1 0.0 -15.3719533219 -13.49 0.0
689 345 1 0.0 -14.1421972485 -14.2 0.0
690 345 1 0.0 -12.9124411751 -13.49 0.0
691 346 1 0.0 -11.6826851017 -14.2 0.0
692 346 1 0.0 -10.4529290284 -13.49 0.0
693 347 1 0.0 -9.22317295498 -14.2 0.0
694 347 1 0.0 -7.99341688161 -13.49 0.0
695 348 1 0.0 -6.76366080824 -14.2 0.0
696 348 1 0.0 -5.53390473486 -13.49 0.0
697 349 1 0.0 -4.30414866149 -14.2 0.0
698 349 1 0.0 -3.07439258811 -13.49 0.0
699 350 1 0.0 -1.84463651474 -14.2 0.0
700 350 1 0.0 -0.614880441366 -13.49 0.0
701 351 1 0.0 0.614875632008 -14.2 0.0
702 351 1 0.0 1.84463170538 -13.49 0.0
703 352 1 0.0 3.07438777876 -14.2 0.0
704 352 1 0.0 4.30414385213 -13.49 0.0
705 353 1 0.0 5.5338999255 -14.2 0.0
706 353 1 0.0 6.76365599888 -13.49 0.0
707 354 1 0.0 7.99341207225 -14.2 0.0
708 354 1 0.0 9.22316814563 -13.49 0.0
709 355 1 0.0 10.452924219 -14.2 0.0
710 355 1 0.0 11.6826802924 -13.49 0.0
711 356 1 0.0 12.9124363657 -14.2 0.0
712 356 1 0.0 14.1421924391 -13.49 0.0
713 357 1 0.0 15.3719485125 -14.2 0.0
714 357 1 0.0 16.6017045859 -13.49 0.0
715 358 1 0.0 17.8314606592 -14.2 0.0
716 358 1 0.0 19.0612167326 -13.49 0.0
717 359 1 0.0 20.290972806 -14.2 0.0
718 359 1 0.0 21.5207288794 -13.49 0.0
719 360 1 0.0 22.7504849527 -14.2 0.0
720 360 1 0.0 23.9802410261 -13.49 0.0
721 361 1 0.0 25.2099970995 -14.2 0.0
722 361 1 0.0 26.4397531729 -13.49 0.0
723 362 1 0.0 27.6695092462 -14.2 0.0
724 362 1 0.0 28.8992653196 -13.49 0.0
725 363 1 0.0 30.129021393 -14.2 0.0
726 363 1 0.0 31.3587774664 -13.49 0.0
727 364 1 0.0 -47.3456112296 -12.07 0.0
728 364 1 0.0 -46.1158551562 -11.36 0.0
729 365 1 0.0 -44.8860990828 -12.07 0.0
730 365 1 0.0 -43.6563430095 -11.36 0.0
731 366 1 0.0 -42.4265869361 -12.07 0.0
732 366 1 0.0 -41.1968308627 -11.36 0.0
733 367 1 0.0 -39.9670747893 -12.07 0.0
734 367 1 0.0 -38.737318716 -11.36 0.0
735 368 1 0.0 -37.5075626426 -12.07 0.0
736 368 1 0.0 -36.2778065692 -11.36 0.0
737 369 1 0.0 -35.0480504958 -12.07 0.0
738 369 1 0.0 -33.8182944225 -11.36 0.0
739 370 1 0.0 -32.5885383491 -12.07 0.0
740 370 1 0.0 -31.3587822757 -11.36 0.0
741 371 1 0.0 -30.1290262023 -12.07 0.0
742 371 1 0.0 -28.899270129 -11.36 0.0
743 372 1 0.0 -27.6695140556 -12.07 0.0
744 372 1 0.0 -26.4397579822 -11.36 0.0
745 373 1 0.0 -25.2100019088 -12.07 0.0
746 373 1 0.0 -23.9802458355 -11.36 0.0
747 374 1 0.0 -22.7504897621 -12.07 0.0
748 374 1 0.0 -21.5207336887 -11.36 0.0
749 375 1 0.0 -20.2909776153 -12.07 0.0
750 375 1 0.0 -19.061221542 -11.36 0.0
751 376 1 0.0 -17.8314654686 -12.07 0.0
752 376 1 0.0 -16.6017093952 -11.36 0.0
753 377 1 0.0 -15.3719533219 -12.07 0.0
754 377 1 0.0 -14.1421972485 -11.36 0.0
755 378 1 0.0 -12.9124411751 -12.07 0.0
756 378 1 0.0 -11.6826851017 -11.36 0.0
757 379 1 0.0 -10.4529290284 -12.07 0.0
758 379 1 0.0 -9.22317295498 -11.36 0.0