LAMMPS data file via write_data, version 16 Feb 2016, timestep = 1140000

2454 atoms
5 atom types
972 bonds
1 bond types
486 angles
1 angle types

-1.0627383967674016e+01 1.0627383967674016e+01 xlo xhi
-9.9115525296072580e+00 9.9115525296072580e+00 ylo yhi
1.3409651161348243e+01 6.6590348838657263e+01 zlo zhi

Masses

1 12
2 12
3 12
4 15.9994
5 1.008

Atoms # full

2157 891 5 5.8970000000000000e-01 -8.2742215864439466e+00 -5.8809699603654577e+00 1.7376866698778358e+01 1 -2 0
1456 658 4 -1.1794000000000000e+00 -7.5228017084518237e+00 -7.6157007712191929e+00 1.4514854624179756e+01 0 0 0
2191 903 4 -1.1794000000000000e+00 -9.2298338443574064e+00 -6.7305352403297709e+00 1.6370862150840004e+01 1 -1 0
2193 903 5 5.8970000000000000e-01 -8.6310938640232369e+00 -7.1215746978795629e+00 1.5732543026017021e+01 1 -1 0
1457 658 5 5.8970000000000000e-01 -7.1494022138080853e+00 -7.1481088254795191e+00 1.3769794471179825e+01 0 0 0
1458 658 5 5.8970000000000000e-01 -7.7896225260300600e+00 -8.4600452331730409e+00 1.4159503077849617e+01 0 0 0
2088 868 5 5.8970000000000000e-01 -6.5892498641896831e+00 -8.0730041100306327e+00 1.5929829078238328e+01 1 -1 0
2086 868 4 -1.1794000000000000e+00 -5.9396456824351764e+00 -8.2701816006869517e+00 1.6600539817575282e+01 1 -1 0
2306 941 5 5.8970000000000000e-01 -5.8803701141579010e+00 -5.5877527879860578e+00 1.7683254301580952e+01 0 -2 0
1652 723 5 5.8970000000000000e-01 -7.9127480541688859e+00 -3.7251958212801735e+00 1.7588434668421463e+01 0 -1 0
2192 903 5 5.8970000000000000e-01 -9.8227495013137869e+00 -7.4407456444443296e+00 1.6608627213134348e+01 1 -1 0
2155 891 4 -1.1794000000000000e+00 -7.6959688224996556e+00 -5.4172689467576163e+00 1.7983921844842776e+01 1 -2 0
2082 866 5 5.8970000000000000e-01 -7.0239968066463936e+00 -9.5355034741571849e+00 1.6974407629403370e+01 0 -1 0
1134 550 5 5.8970000000000000e-01 -1.0398473483842249e+01 -9.4531694493377234e+00 1.7498611365816494e+01 1 -1 0
1880 799 5 5.8970000000000000e-01 -6.9943130613882882e+00 -3.7104644303537833e+00 1.4533462709048159e+01 0 -2 0
1879 799 4 -1.1794000000000000e+00 -7.8757093009326189e+00 -3.3625443811585924e+00 1.4675421688702642e+01 0 -2 0
2087 868 5 5.8970000000000000e-01 -5.6157659322646847e+00 -7.4148713129119903e+00 1.6877925904588764e+01 1 -1 0
2285 934 5 5.8970000000000000e-01 -5.8344295719790393e+00 -5.6338910805124494e+00 1.3411095065620891e+01 1 -1 0
2305 941 4 -1.1794000000000000e+00 -5.0644462688547005e+00 -5.7164060692630878e+00 1.7196814759037700e+01 0 -2 0
1558 692 4 -1.1794000000000000e+00 -5.2926688666861530e+00 -4.7198159418977017e+00 1.4799161633664699e+01 0 -1 0
1560 692 5 5.8970000000000000e-01 -5.2334002026773723e+00 -5.3053702242903853e+00 1.5554529344715407e+01 0 -1 0
2307 941 5 5.8970000000000000e-01 -4.4603540605935894e+00 -5.0791706963495900e+00 1.7578230072549051e+01 0 -2 0
1559 692 5 5.8970000000000000e-01 -4.4774556505779293e+00 -4.2209140579922062e+00 1.4822437468987903e+01 0 -1 0
1939 819 4 -1.1794000000000000e+00 -1.3009388612168928e+00 -5.5153370499856944e+00 1.4221203213589863e+01 0 0 0
1941 819 5 5.8970000000000000e-01 -1.9054111559436964e+00 -4.7741652165656454e+00 1.4229876882406442e+01 0 0 0
1549 689 4 -1.1794000000000000e+00 -1.4084571459314470e+00 -7.4473365337016766e+00 1.6294494897422652e+01 -1 -1 0
1551 689 5 5.8970000000000000e-01 -1.4126636789566323e+00 -6.8324863174006625e+00 1.5566849696863990e+01 -1 -1 0
1550 689 5 5.8970000000000000e-01 -1.9788929049225592e+00 -8.1565758755853235e+00 1.6004432139912460e+01 -1 -1 0
1005 507 5 5.8970000000000000e-01 -4.3958307733153994e+00 -8.9317170075671601e+00 1.6333693795488458e+01 -1 -2 0
1003 507 4 -1.1794000000000000e+00 -3.5779872933061663e+00 -9.3270430530933499e+00 1.6033197331045720e+01 -1 -2 0
1364 627 5 5.8970000000000000e-01 -1.2929498191392375e+00 -6.6376013371538223e+00 1.7827886255161978e+01 -2 -2 0
1940 819 5 5.8970000000000000e-01 -4.3540622185836864e-01 -5.1213699065490363e+00 1.4306708591180682e+01 0 0 0
1004 507 5 5.8970000000000000e-01 -3.6850029409855192e+00 -9.4178498033643692e+00 1.5090396460219241e+01 -1 -2 0
1139 552 5 5.8970000000000000e-01 -2.2495474848484172e+00 -3.7799552241809700e+00 1.8498179974680667e+01 -1 -1 0
1441 653 4 -1.1794000000000000e+00 -3.5987176052284187e+00 -9.8410788812626091e+00 1.3426931865687774e+01 0 -1 0
1937 818 5 5.8970000000000000e-01 2.0267772434715425e-01 -7.7044336099618667e+00 1.6535013644185575e+01 0 0 0
1318 612 4 -1.1794000000000000e+00 1.0483402749071480e+00 -4.4688316931246668e+00 1.4528190605612856e+01 0 0 0
1319 612 5 5.8970000000000000e-01 1.6382103419799783e+00 -4.8571945979671494e+00 1.5175927977422978e+01 0 0 0
2324 947 5 5.8970000000000000e-01 2.1196722992301873e+00 -6.3194067583634199e+00 1.6416948694885377e+01 0 -1 0
2323 947 4 -1.1794000000000000e+00 2.7107274447993515e+00 -5.5657771985270674e+00 1.6402042395158457e+01 0 -1 0
2325 947 5 5.8970000000000000e-01 3.0927513187584847e+00 -5.5437656728945823e+00 1.7280605140582825e+01 0 -1 0
1936 818 4 -1.1794000000000000e+00 1.1182149576037812e+00 -7.9844964851343594e+00 1.6502708784888959e+01 0 0 0
1938 818 5 5.8970000000000000e-01 1.3675319092229774e+00 -8.0987478222684430e+00 1.7416621765890518e+01 0 0 0
1713 743 5 5.8970000000000000e-01 2.5916182219355157e+00 -8.6835883712356843e+00 1.5493594993257032e+01 0 -1 0
1275 597 5 5.8970000000000000e-01 4.2855506912405188e+00 -5.4633944733035422e+00 1.5536333449119406e+01 -1 -1 0
1320 612 5 5.8970000000000000e-01 1.6255154658553137e+00 -4.1908522763557672e+00 1.3816245311983918e+01 0 0 0
1711 743 4 -1.1794000000000000e+00 3.3554844409289832e+00 -9.2153799062444453e+00 1.5283348006550327e+01 0 -1 0
1712 743 5 5.8970000000000000e-01 3.3671514308224908e+00 -9.2526670333718073e+00 1.4329183917036429e+01 0 -1 0
2343 953 5 5.8970000000000000e-01 4.8850975060005197e+00 -4.8492315683721925e+00 1.8348945420105782e+01 0 -1 0
1273 597 4 -1.1794000000000000e+00 5.1696222048132840e+00 -5.1730368185656666e+00 1.5300677740443787e+01 -1 -1 0
2341 953 4 -1.1794000000000000e+00 4.3917833845022214e+00 -5.6261016688662275e+00 1.8627369142650331e+01 0 -1 0
1353 623 5 5.8970000000000000e-01 5.1019441578410536e+00 -9.6943534984234319e+00 1.5798124939632018e+01 -1 -1 0
1373 630 5 5.8970000000000000e-01 5.2950788324076328e+00 -7.0007642214987102e+00 1.8370403239558840e+01 -1 -1 0
1908 808 5 5.8970000000000000e-01 1.0615904405482853e+01 -5.4526632972502593e+00 1.6437918910263868e+01 0 -1 0
1239 585 5 5.8970000000000000e-01 1.0424017127562754e+01 -3.4071760709700651e+00 1.5334839559740146e+01 -2 -2 0
2439 985 5 5.8970000000000000e-01 5.5801553952169618e+00 -4.8661013900119734e+00 1.3660309362994745e+01 0 -1 0
1274 597 5 5.8970000000000000e-01 5.4963457962521396e+00 -4.7272758662138399e+00 1.6085675561274041e+01 -1 -1 0
1352 623 5 5.8970000000000000e-01 5.8991158133586126e+00 -8.9904016732737126e+00 1.6877113438340110e+01 -1 -1 0
1132 550 4 -1.1794000000000000e+00 1.0439890453939194e+01 -8.6598720466954671e+00 1.7165132055953165e+01 0 -1 0
1410 642 5 5.8970000000000000e-01 1.0452554592768362e+01 -8.6049498257698893e+00 1.5382287073124720e+01 -1 -1 0
1906 808 4 -1.1794000000000000e+00 9.9501426449648420e+00 -4.7636125430501961e+00 1.6446301796984645e+01 0 -1 0
1408 642 4 -1.1794000000000000e+00 1.0246733120382286e+01 -8.5615123190215083e+00 1.4448235043459771e+01 -1 -1 0
1907 808 5 5.8970000000000000e-01 9.1343685108469295e+00 -5.2172721768580574e+00 1.6240696434687774e+01 0 -1 0
1097 538 5 5.8970000000000000e-01 6.8921274430813551e+00 -5.7176599350502135e+00 1.5041427231193175e+01 -1 -1 0
1098 538 5 5.8970000000000000e-01 7.9231439359245162e+00 -6.7910223217018908e+00 1.4747915052332838e+01 -1 -1 0
1096 538 4 -1.1794000000000000e+00 7.8387823218277237e+00 -5.8642440389169961e+00 1.4981433756087052e+01 -1 -1 0
1588 702 4 -1.1794000000000000e+00 7.5417635240988004e+00 -8.2995103611493324e+00 1.4259118355995644e+01 -1 -1 0
1409 642 5 5.8970000000000000e-01 9.2910390633817421e+00 -8.5137094231913988e+00 1.4420733620336376e+01 -1 -1 0
1133 550 5 5.8970000000000000e-01 9.6972395812910577e+00 -8.5145842252905766e+00 1.7750086135278536e+01 0 -1 0
1589 702 5 5.8970000000000000e-01 6.9696276341865664e+00 -8.8262172996163937e+00 1.4816825254684671e+01 -1 -1 0
1731 749 5 5.8970000000000000e-01 9.9247073959120122e+00 -3.6786193315851792e+00 1.7905055112459394e+01 0 -1 0
1351 623 4 -1.1794000000000000e+00 5.9966531725898484e+00 -9.5818988765794160e+00 1.6128564784615676e+01 -1 -1 0
1066 528 4 -1.1794000000000000e+00 5.8309926444283304e+00 -3.6356602628156041e+00 1.7492541995624670e+01 -1 -1 0
1067 528 5 5.8970000000000000e-01 6.5317511643443043e+00 -3.4113504775390808e+00 1.8104491353394319e+01 -1 -1 0
2304 940 5 5.8970000000000000e-01 8.9107942383887799e+00 -5.1734332448908074e+00 1.3637507745859468e+01 -2 -1 0
1372 630 4 -1.1794000000000000e+00 5.6120102207907197e+00 -7.9019872215586329e+00 1.8371570902778046e+01 -1 -1 0
2138 885 5 5.8970000000000000e-01 7.4019387255618234e+00 -8.0678744691399658e+00 1.8705065751053521e+01 0 0 0
1590 702 5 5.8970000000000000e-01 7.0892538050772620e+00 -8.2668443234211235e+00 1.3418183137422709e+01 -1 -1 0
1238 585 5 5.8970000000000000e-01 -9.6099816060393604e+00 -3.1945855238617762e+00 1.4469470262839140e+01 -1 -2 0
1881 799 5 5.8970000000000000e-01 -7.8979297052848763e+00 -3.1282342148549054e+00 1.5606172296328356e+01 0 -2 0
1651 723 4 -1.1794000000000000e+00 -7.7664309160804565e+00 -2.8675562675569513e+00 1.7191050251869449e+01 0 -1 0
1653 723 5 5.8970000000000000e-01 -7.1590165379020689e+00 -2.4249481070555174e+00 1.7784648597088275e+01 0 -1 0
1538 685 5 5.8970000000000000e-01 -9.0361148556112827e+00 -1.7413558180741668e+00 1.7173815834486604e+01 0 -3 0
1158 558 5 5.8970000000000000e-01 -7.6312814508918194e+00 9.4556387410791820e-01 1.5348463725848490e+01 0 -2 0
1156 558 4 -1.1794000000000000e+00 -8.4980082643442358e+00 5.6711766397240460e-01 1.5485381841980523e+01 0 -2 0
1809 775 5 5.8970000000000000e-01 -6.4930267076596015e+00 1.7955302254873651e+00 1.7059178815193377e+01 0 -2 0
1678 732 4 -1.1794000000000000e+00 -6.0178391283042991e+00 1.2974123942894549e+00 1.5283346614423069e+01 -1 -2 0
1680 732 5 5.8970000000000000e-01 -6.0184428868411510e+00 1.5823396443760385e+00 1.4368709639801907e+01 -1 -2 0
1157 558 5 5.8970000000000000e-01 -9.0947619867776890e+00 1.3085076016911712e+00 1.5420038136540729e+01 0 -2 0
1304 607 5 5.8970000000000000e-01 -8.3970371280268647e+00 -5.7580359138534820e-01 1.4093855295046147e+01 0 -1 0
1807 775 4 -1.1794000000000000e+00 -6.5876072553337464e+00 2.4064242599600214e+00 1.7792266152956550e+01 0 -2 0
1539 685 5 5.8970000000000000e-01 -9.3445960512351522e+00 -3.6729281071483799e-01 1.6624302147763746e+01 0 -3 0
1537 685 4 -1.1794000000000000e+00 -9.6630162120237255e+00 -1.0234766452165538e+00 1.7240101991032056e+01 0 -3 0
1305 607 5 5.8970000000000000e-01 -7.9099690376806882e+00 -1.9668056720131535e+00 1.3751454934702231e+01 0 -1 0
1770 762 5 5.8970000000000000e-01 -5.3852942991776125e+00 -1.3337003726584378e+00 1.8605583937890145e+01 0 -2 0
1870 796 4 -1.1794000000000000e+00 -1.0315526987602739e+01 2.5517869312361707e+00 1.5428293017931971e+01 0 -1 0
1237 585 4 -1.1794000000000000e+00 -1.0501538290882603e+01 -2.8835179697705304e+00 1.4607428495211551e+01 -1 -2 0
1584 700 5 5.8970000000000000e-01 -1.0461780816628080e+01 -2.0452278857402190e-01 1.8526564141801810e+01 0 -2 0
1730 749 5 5.8970000000000000e-01 -1.0510055944173640e+01 -2.4050351370955436e+00 1.7916428979740360e+01 1 -1 0
1871 796 5 5.8970000000000000e-01 -9.9672781899102141e+00 2.9974674279557258e+00 1.6203672681753954e+01 0 -1 0
1568 695 5 5.8970000000000000e-01 -8.2484778560778977e+00 3.2419224898944496e+00 1.7789059442668165e+01 1 -2 0
1808 775 5 5.8970000000000000e-01 -6.1046219585201875e+00 3.1869976001191769e+00 1.7518557995267219e+01 0 -2 0
1718 745 5 5.8970000000000000e-01 -1.0598791782988224e+01 3.1364516794573003e+00 1.8529705007354703e+01 -1 -2 0
1886 801 5 5.8970000000000000e-01 -3.4211502014112316e+00 -3.2290947755669204e+00 1.6616744718817358e+01 0 -1 0
1885 801 4 -1.1794000000000000e+00 -3.5423627467710115e+00 -3.1421360730540489e+00 1.7560487301586228e+01 0 -1 0
1679 732 5 5.8970000000000000e-01 -5.1283455968289120e+00 9.6713086975811213e-01 1.5432409543709118e+01 -1 -2 0
2059 859 4 -1.1794000000000000e+00 -4.3438865791398179e-01 -2.5723197990161730e+00 1.5650529372827084e+01 0 -1 0
1144 554 4 -1.1794000000000000e+00 -2.9226510799068799e+00 -3.1036518608585144e+00 1.4911873630802134e+01 -1 -1 0
1146 554 5 5.8970000000000000e-01 -2.0987350143759365e+00 -2.7616446032701685e+00 1.5256442864392179e+01 -1 -1 0
1595 704 5 5.8970000000000000e-01 -3.9289724994700985e+00 -2.5909257167725869e-01 1.7168868149586675e+01 0 -1 0
1594 704 4 -1.1794000000000000e+00 -4.0625300872483665e+00 -4.8245359439050234e-01 1.8086934063114679e+01 0 -1 0
1887 801 5 5.8970000000000000e-01 -3.7727853037563763e+00 -2.2261834384754819e+00 1.7688059590777179e+01 0 -1 0
2396 971 5 5.8970000000000000e-01 -3.5617449506970900e+00 -1.0174227709310553e-01 1.4608494590599282e+01 0 -1 0
2395 971 4 -1.1794000000000000e+00 -3.5428097692390761e+00 2.3260135141402466e-01 1.5501739193252259e+01 0 -1 0
2397 971 5 5.8970000000000000e-01 -2.7638574364843191e+00 7.9126588102738227e-01 1.5535472669419612e+01 0 -1 0
1129 549 4 -1.1794000000000000e+00 -1.0725302586492389e+00 1.3104768425459667e+00 1.5755689101570534e+01 -1 -1 0
1131 549 5 5.8970000000000000e-01 -7.5331688598504165e-01 1.0748403926304475e+00 1.6624003247654052e+01 -1 -1 0
1130 549 5 5.8970000000000000e-01 -5.4174316335121953e-01 7.8130808403129803e-01 1.5152798615801236e+01 -1 -1 0
2212 910 4 -1.1794000000000000e+00 -5.3773655410394139e-01 4.8812150671718996e-01 1.8183617442828584e+01 1 -1 0
1145 554 5 5.8970000000000000e-01 -3.2309587335737149e+00 -2.4206099674876760e+00 1.4316932898305131e+01 -1 -1 0
1596 704 5 5.8970000000000000e-01 -3.6912580038687288e+00 2.5527569600494038e-01 1.8573940884266992e+01 0 -1 0
1430 649 5 5.8970000000000000e-01 -1.2647003499201570e+00 3.0411690927336497e+00 1.5395949161118828e+01 -1 -1 0
2393 970 5 5.8970000000000000e-01 -3.1340220076822676e+00 2.5727691007812346e+00 1.8635455297224414e+01 0 -1 0
2213 910 5 5.8970000000000000e-01 -4.7626372075026641e-01 -3.4186342318224394e-01 1.8663488065294032e+01 1 -1 0
1888 802 4 -1.1794000000000000e+00 8.9135041721145458e-01 5.7016151341186139e-01 1.3867904195775800e+01 0 -2 0
2060 859 5 5.8970000000000000e-01 1.3356708204125411e-01 -2.1775417195620839e+00 1.6316934314886961e+01 0 -1 0
2214 910 5 5.8970000000000000e-01 1.1448066721388989e-01 1.0551439075472007e+00 1.8599083541946598e+01 1 -1 0
2061 859 5 5.8970000000000000e-01 8.3526204921264224e-02 -3.2993813104357503e+00 1.5299452198631391e+01 0 -1 0
1061 526 5 5.8970000000000000e-01 3.1864547196382076e+00 -2.9403532550765510e+00 1.3857006338718023e+01 -1 -1 0
1396 638 4 -1.1794000000000000e+00 1.6778834904697910e+00 -1.6996688060677398e+00 1.7661213700154335e+01 -1 -1 0
1137 551 5 5.8970000000000000e-01 2.5649796347817118e+00 -2.1920038719656274e+00 1.6181383980637463e+01 0 -1 0
1135 551 4 -1.1794000000000000e+00 3.0612237232784305e+00 -2.0337992833324612e+00 1.5380723395156489e+01 0 -1 0
1889 802 5 5.8970000000000000e-01 1.6905097339611088e+00 4.5772076265147921e-01 1.4387025143514377e+01 0 -2 0
1743 753 5 5.8970000000000000e-01 3.4389469521443301e+00 1.2614124136346003e+00 1.4698177785385711e+01 -1 -2 0
1741 753 4 -1.1794000000000000e+00 3.1161204384208747e+00 6.0572265688307492e-01 1.5312192916488174e+01 -1 -2 0
1136 551 5 5.8970000000000000e-01 3.0615157839051355e+00 -1.0851367762142914e+00 1.5282982181360971e+01 0 -1 0
1742 753 5 5.8970000000000000e-01 3.1395088665452411e+00 1.0440119963048222e+00 1.6164872381040730e+01 -1 -2 0
1444 654 4 -1.1794000000000000e+00 3.0104011943518829e+00 1.7543618244513839e+00 1.7873459288089272e+01 -1 -1 0
1998 838 5 5.8970000000000000e-01 4.8904424678939256e+00 -1.6384230236673971e+00 1.5570751846558965e+01 -1 -2 0
1398 638 5 5.8970000000000000e-01 2.4473674036897832e+00 -1.4730262611046010e+00 1.8185747970550558e+01 -1 -1 0
1565 694 5 5.8970000000000000e-01 4.6809553660998837e+00 2.2865823779732737e+00 1.8195452455808493e+01 -1 -1 0
1446 654 5 5.8970000000000000e-01 2.2622246464463474e+00 2.0350217958931931e+00 1.8400560893348860e+01 -1 -1 0
1445 654 5 5.8970000000000000e-01 3.2495401876054415e+00 8.9887006692829940e-01 1.8229061767492780e+01 -1 -1 0
1397 638 5 5.8970000000000000e-01 9.3945783415635020e-01 -1.6222037934284101e+00 1.8269026555169166e+01 -1 -1 0
1564 694 4 -1.1794000000000000e+00 5.6109767379487723e+00 2.5162959031127552e+00 1.8228831366592587e+01 -1 -1 0
1996 838 4 -1.1794000000000000e+00 5.8288362619872522e+00 -1.7160236357425764e+00 1.5737292427936341e+01 -1 -2 0
1068 528 5 5.8970000000000000e-01 5.8106489028211898e+00 -2.9078578655657683e+00 1.6868479509935312e+01 -1 -1 0
1566 694 5 5.8970000000000000e-01 6.0480238751408377e+00 1.8423574190445846e+00 1.7707060934434921e+01 -1 -1 0
1997 838 5 5.8970000000000000e-01 6.2031052574204528e+00 -1.9013862145665112e+00 1.4875214079411595e+01 -1 -2 0
2141 886 5 5.8970000000000000e-01 6.4299785830015015e+00 -2.8013840413291125e-01 1.6657676071239713e+01 0 -1 0
1751 756 5 5.8970000000000000e-01 9.4664466548910049e+00 1.6100492840910869e+00 1.5243320472111410e+01 -1 -1 0
2140 886 4 -1.1794000000000000e+00 6.8300297173432645e+00 5.3492489853616909e-01 1.6971752730377702e+01 0 -1 0
2142 886 5 5.8970000000000000e-01 7.5256182898141502e+00 7.1540941794802337e-01 1.6341478600642930e+01 0 -1 0
1752 756 5 5.8970000000000000e-01 9.1237678651681939e+00 2.7827897084336711e-01 1.4615040958885976e+01 -1 -1 0
1750 756 4 -1.1794000000000000e+00 8.7494958745275770e+00 9.8773185461615098e-01 1.5138991365017819e+01 -1 -1 0
2084 867 5 5.8970000000000000e-01 9.9463173974223569e+00 -1.5134987115899483e+00 1.3961027438845978e+01 0 -2 0
1947 821 5 5.8970000000000000e-01 6.3103293988556333e+00 1.2304758272680177e-01 1.8413608814249390e+01 0 0 0
1358 625 5 5.8970000000000000e-01 7.9688648199870382e+00 1.8043079696123661e+00 1.3580743361296301e+01 -1 -2 0
1872 796 5 5.8970000000000000e-01 1.0554282236797420e+01 3.2480226752405521e+00 1.4900335388138167e+01 -1 -1 0
1729 749 4 -1.1794000000000000e+00 1.0291077983387707e+01 -3.0171316828018857e+00 1.8496066598305799e+01 0 -1 0
1583 700 5 5.8970000000000000e-01 9.2768293524013608e+00 -1.9846871519424791e-01 1.8554739047357373e+01 -1 -2 0
1744 754 4 -1.1794000000000000e+00 -8.1276833396606190e+00 9.6873188663636114e+00 1.3865218099890246e+01 0 -2 0
2081 866 5 5.8970000000000000e-01 -7.6714683850406500e+00 9.5141803001552052e+00 1.5839013152819721e+01 0 -2 0
2375 964 5 5.8970000000000000e-01 -1.0287969467067837e+01 7.3391861426141913e+00 1.3695429492162377e+01 1 -2 0
2080 866 4 -1.1794000000000000e+00 -7.5991919501779419e+00 9.5423813677170291e+00 1.6795544706671006e+01 0 -2 0
1593 703 5 5.8970000000000000e-01 -5.4875259355779296e+00 3.4868736732987835e+00 1.3571466565474241e+01 0 -2 0
1746 754 5 5.8970000000000000e-01 -8.9988460581548377e+00 9.3247290715204834e+00 1.4050651312636264e+01 0 -2 0
1567 695 4 -1.1794000000000000e+00 -9.1085075989940787e+00 3.5795899779002154e+00 1.7554673374275783e+01 1 -2 0
1592 703 5 5.8970000000000000e-01 -6.1228726812231420e+00 4.7934729275623269e+00 1.4006032358838587e+01 0 -2 0
1569 695 5 5.8970000000000000e-01 -8.9428350355500754e+00 4.4803476831985831e+00 1.7271410242004411e+01 1 -2 0
1407 641 5 5.8970000000000000e-01 -6.5131141453613601e+00 7.7302820871392086e+00 1.7169896658371897e+01 -1 -1 0
1406 641 5 5.8970000000000000e-01 -7.4389742766313498e+00 6.5766216426578881e+00 1.6848253425933649e+01 -1 -1 0
1663 727 4 -1.1794000000000000e+00 -8.9203466249434022e+00 5.9097101923778093e+00 1.5990230622553506e+01 -1 -3 0
1664 727 5 5.8970000000000000e-01 -8.8637664864470924e+00 5.9059995420478080e+00 1.5037917070711035e+01 -1 -3 0
1405 641 4 -1.1794000000000000e+00 -6.6591925547848065e+00 6.7990646365372234e+00 1.7351037487072624e+01 -1 -1 0
2301 939 5 5.8970000000000000e-01 -5.6983247899489440e+00 5.3388509804431656e+00 1.6913636920691339e+01 0 -2 0
1591 703 4 -1.1794000000000000e+00 -5.3979888263379818e+00 4.1998418799031469e+00 1.4205211430814957e+01 0 -2 0
1665 727 5 5.8970000000000000e-01 -9.7683810592469982e+00 6.3112685018649568e+00 1.6178083844466649e+01 -1 -3 0
1484 667 5 5.8970000000000000e-01 -8.8173565045456197e+00 9.0264093126270275e+00 1.7794877036063056e+01 0 -2 0
1483 667 4 -1.1794000000000000e+00 -9.6958865975346686e+00 8.7869512660253175e+00 1.8085972736437107e+01 0 -2 0
2300 939 5 5.8970000000000000e-01 -5.3696778524624138e+00 4.2484683050103280e+00 1.5912901460583647e+01 0 -2 0
2374 964 4 -1.1794000000000000e+00 -1.0296625887636340e+01 8.1896146421282339e+00 1.4138518910191276e+01 1 -2 0
2153 890 5 5.8970000000000000e-01 -3.0931619849446776e+00 9.8277433502651093e+00 1.7507817040686319e+01 -1 -3 0
1611 709 5 5.8970000000000000e-01 -7.1531895946878266e-01 9.8983472032280027e+00 1.3953494578597567e+01 -1 -2 0
2299 939 4 -1.1794000000000000e+00 -5.2069679752100217e+00 4.5205887819647188e+00 1.6817458633495033e+01 0 -2 0
1926 814 5 5.8970000000000000e-01 -2.2709185037642294e+00 5.1073053772879815e+00 1.4247820736830731e+01 0 -2 0
1429 649 4 -1.1794000000000000e+00 -1.3754020628057315e+00 3.9933044321360316e+00 1.5439871694018082e+01 -1 -1 0
1215 577 5 5.8970000000000000e-01 -2.4459204342022391e+00 3.8724540415809021e+00 1.6842832209880406e+01 -1 -1 0
1213 577 4 -1.1794000000000000e+00 -2.8202540660009308e+00 4.0705386917215884e+00 1.7705636192337870e+01 -1 -1 0
1431 649 5 5.8970000000000000e-01 -4.8898148320531853e-01 4.3346660853659582e+00 1.5553583308653151e+01 -1 -1 0
1214 577 5 5.8970000000000000e-01 -3.7501304939492530e+00 4.2426895333229675e+00 1.7534831806622233e+01 -1 -1 0
1668 728 5 5.8970000000000000e-01 -2.7604145082186773e+00 7.3086493804639323e+00 1.6842838023909881e+01 -1 -2 0
1039 519 4 -1.1794000000000000e+00 -2.8663133469420972e+00 7.7158200365922038e+00 1.5261160302102045e+01 -1 -2 0
1074 530 5 5.8970000000000000e-01 -1.3571132791000078e+00 8.7676376421768616e+00 1.5502960725055781e+01 -1 -2 0
1040 519 5 5.8970000000000000e-01 -2.9283806321695081e+00 6.9875032693197285e+00 1.4639348641760723e+01 -1 -2 0
1041 519 5 5.8970000000000000e-01 -3.5070739583939101e+00 8.3573312295387598e+00 1.4948282244746665e+01 -1 -2 0
1666 728 4 -1.1794000000000000e+00 -2.7897593196153054e+00 6.8793410544874689e+00 1.7700373350258687e+01 -1 -2 0
1667 728 5 5.8970000000000000e-01 -2.7465500870725421e+00 5.9405423446218917e+00 1.7504849534820870e+01 -1 -2 0
1072 530 4 -1.1794000000000000e+00 -4.3070862246220548e-01 8.9629787499607918e+00 1.5356975562909986e+01 -1 -2 0
2154 890 5 5.8970000000000000e-01 -2.5199130808075458e+00 8.5880191195162112e+00 1.8163741343337673e+01 -1 -3 0
2152 890 4 -1.1794000000000000e+00 -2.6921637685475122e+00 9.5183330270828517e+00 1.8322799059524414e+01 -1 -3 0
1925 814 5 5.8970000000000000e-01 -3.7285519703991055e+00 4.9382934658278490e+00 1.3867829304119100e+01 0 -2 0
1924 814 4 -1.1794000000000000e+00 -2.9854799111340160e+00 5.5370907185487335e+00 1.3776487171850192e+01 0 -2 0
1991 836 5 5.8970000000000000e-01 1.3706803080383154e+00 4.5020274045598487e+00 1.4006217325788889e+01 -1 -2 0
1073 530 5 5.8970000000000000e-01 8.1701486069735117e-03 8.6575853838673940e+00 1.6150840955200628e+01 -1 -2 0
1544 687 5 5.8970000000000000e-01 5.8374049951993678e-01 8.6002882471351594e+00 1.8276511980562582e+01 -1 -2 0
1452 656 5 5.8970000000000000e-01 6.6454592107020349e-01 8.1643923110887524e+00 1.4342721844156635e+01 -1 -1 0
1451 656 5 5.8970000000000000e-01 1.8058471378458238e+00 7.2083706283028173e+00 1.4073919131361682e+01 -1 -1 0
1545 687 5 5.8970000000000000e-01 8.9317077494135766e-01 7.1642591467183303e+00 1.7929489456714879e+01 -1 -2 0
1543 687 4 -1.1794000000000000e+00 9.5222060440066580e-01 8.0531319651885926e+00 1.7584810615510346e+01 -1 -2 0
1487 668 5 5.8970000000000000e-01 1.1380481629776662e+00 5.1577370158788423e+00 1.6619556162471319e+01 -1 -2 0
1195 571 4 -1.1794000000000000e+00 1.0414980161439604e+00 5.4771803838074860e+00 1.8344871127701925e+01 0 -2 0
1486 668 4 -1.1794000000000000e+00 1.1759445833084137e+00 5.1401704227820701e+00 1.5663781760080218e+01 -1 -2 0
2234 917 5 5.8970000000000000e-01 3.3825424108250033e+00 9.4314494818792518e+00 1.6550237580921273e+01 -1 -1 0
2279 932 5 5.8970000000000000e-01 3.9678581284934871e+00 6.5701049164519825e+00 1.4542756734914333e+01 0 -1 0
2278 932 4 -1.1794000000000000e+00 3.1340620173375955e+00 6.7272936196149598e+00 1.4980209260278510e+01 0 -1 0
1488 668 5 5.8970000000000000e-01 1.8960379698466387e+00 5.7265263014809111e+00 1.5441923567083947e+01 -1 -2 0
2233 917 4 -1.1794000000000000e+00 3.3712127417246576e+00 8.5519619512983081e+00 1.6932936633288644e+01 -1 -1 0
2280 932 5 5.8970000000000000e-01 3.3548626161283290e+00 7.3120137742347717e+00 1.5706002320427970e+01 0 -1 0
2235 917 5 5.8970000000000000e-01 2.4540310610589393e+00 8.4047800213443828e+00 1.7173720679684408e+01 -1 -1 0
2078 865 5 5.8970000000000000e-01 4.4297120477245295e+00 8.1410983954993537e+00 1.8306508156636077e+01 -1 -1 0
1450 656 4 -1.1794000000000000e+00 1.1732017919729751e+00 7.7790462555904645e+00 1.3631961908635315e+01 -1 -1 0
2253 923 5 5.8970000000000000e-01 1.0535636165979517e+01 5.3250226775863894e+00 1.3531989401410256e+01 -1 -1 0
2127 881 5 5.8970000000000000e-01 1.0604082456634771e+01 7.8285676182745192e+00 1.7148693436078926e+01 0 -1 0
2376 964 5 5.8970000000000000e-01 1.0585229432705125e+01 8.0050399819166209e+00 1.4995881276970417e+01 0 -2 0
1421 646 5 5.8970000000000000e-01 8.7026209294835368e+00 3.8015085401319628e+00 1.3655902324073187e+01 -1 -1 0
1702 740 4 -1.1794000000000000e+00 5.5597932721311114e+00 6.3880445419250993e+00 1.3952692192916302e+01 -1 0 0
1226 581 5 5.8970000000000000e-01 7.1057442363475571e+00 3.7369128712425721e+00 1.7956733977416963e+01 -1 -2 0
1227 581 5 5.8970000000000000e-01 8.6131079636236016e+00 3.7420387389480401e+00 1.8068259316987145e+01 -1 -2 0
1704 740 5 5.8970000000000000e-01 6.2810266548348688e+00 6.3180784437591697e+00 1.4575165989881745e+01 -1 0 0
2298 938 5 5.8970000000000000e-01 7.2413598752750907e+00 8.9189494369586466e+00 1.6461228686920155e+01 -1 -2 0
2125 881 4 -1.1794000000000000e+00 1.0177145987960422e+01 7.2182504862737833e+00 1.6549369000200805e+01 0 -1 0
1225 581 4 -1.1794000000000000e+00 7.8781990264859054e+00 4.2711431975678344e+00 1.7766209650225317e+01 -1 -2 0
1976 831 5 5.8970000000000000e-01 7.4626217827427697e+00 5.0796712449648957e+00 1.6370231777469851e+01 -1 -3 0
2297 938 5 5.8970000000000000e-01 7.9464095253285159e+00 8.5161091208610280e+00 1.7741737634085116e+01 -1 -2 0
2296 938 4 -1.1794000000000000e+00 7.7032928295912324e+00 8.1876926516942206e+00 1.6874702646492509e+01 -1 -2 0
2126 881 5 5.8970000000000000e-01 9.2392016384088862e+00 7.4148241416085963e+00 1.6631472753389698e+01 0 -1 0
1975 831 4 -1.1794000000000000e+00 7.4606807539712987e+00 5.7568872024647275e+00 1.5699738658956960e+01 -1 -3 0
1977 831 5 5.8970000000000000e-01 7.4363169636809161e+00 6.5788004846959209e+00 1.6185506680945952e+01 -1 -3 0
1422 646 5 5.8970000000000000e-01 8.6495829962527573e+00 5.0661229056284762e+00 1.4495247676154971e+01 -1 -1 0
1420 646 4 -1.1794000000000000e+00 9.2594506367287455e+00 4.4121332832254705e+00 1.4147405766651058e+01 -1 -1 0
2156 891 5 5.8970000000000000e-01 -7.9690406840567736e+00 -5.7114577760204153e+00 1.8851256382845683e+01 1 -2 0
1644 720 5 5.8970000000000000e-01 -6.5769690059387980e+00 -7.7628569297924370e+00 2.0616568902988714e+01 0 -1 0
2123 880 5 5.8970000000000000e-01 -8.4098944277994629e+00 -7.1842970050892037e+00 2.0514285984581363e+01 1 -1 0
2122 880 4 -1.1794000000000000e+00 -8.9292451378475963e+00 -6.4210420762803473e+00 2.0259055605511811e+01 1 -1 0
1049 522 5 5.8970000000000000e-01 -9.4395599717114678e+00 -4.6345553588555282e+00 2.0654918565235654e+01 0 -1 0
2426 981 5 5.8970000000000000e-01 -8.2278443268643837e+00 -7.7580425273225897e+00 2.2419734377405199e+01 0 0 0
2425 981 4 -1.1794000000000000e+00 -8.7722832559735959e+00 -7.6805716535366626e+00 2.3197039927956723e+01 0 0 0
1642 720 4 -1.1794000000000000e+00 -7.2328618865620165e+00 -8.3363544177830970e+00 2.1003044034074946e+01 0 -1 0
1394 637 5 5.8970000000000000e-01 -5.3710472717876661e+00 -4.3373082265115226e+00 2.1455280025918011e+01 -1 -1 0
2124 880 5 5.8970000000000000e-01 -9.8268194056908769e+00 -6.7505769601949019e+00 2.0203397646575418e+01 1 -1 0
1643 720 5 5.8970000000000000e-01 -6.9871807543902875e+00 -9.2171104326306708e+00 2.0711281766202315e+01 0 -1 0
1048 522 4 -1.1794000000000000e+00 -9.5238224268303480e+00 -3.6889935011398367e+00 2.0789717071788949e+01 0 -1 0
1308 608 5 5.8970000000000000e-01 -1.0288174160572142e+01 -8.4642447722269480e+00 2.2764908337019691e+01 0 0 0
1050 522 5 5.8970000000000000e-01 -1.0095507137118252e+01 -3.3969867819094239e+00 2.0078185607481615e+01 0 -1 0
2427 981 5 5.8970000000000000e-01 -8.5207405166347030e+00 -8.4245186688106912e+00 2.3744478124477219e+01 0 0 0
1149 555 5 5.8970000000000000e-01 -9.1659846836831740e+00 -6.1460041395127654e+00 2.3822043869968731e+01 0 -1 0
1979 832 5 5.8970000000000000e-01 -7.5561996397631539e+00 -3.4218551150323133e+00 2.0810419340552663e+01 1 -1 0
1978 832 4 -1.1794000000000000e+00 -6.6019548372271837e+00 -3.3581637726074303e+00 2.0807120489706321e+01 1 -1 0
1148 555 5 5.8970000000000000e-01 -9.9538376429796589e+00 -4.8597520302008661e+00 2.3824871719244353e+01 0 -1 0
1390 636 4 -1.1794000000000000e+00 -5.2869855361400537e+00 -6.9053339410667611e+00 2.0349343052964340e+01 0 -1 0
1392 636 5 5.8970000000000000e-01 -5.0469112545566670e+00 -6.1797590010674117e+00 2.0926387123549969e+01 0 -1 0
1820 779 5 5.8970000000000000e-01 -4.5992817399295447e+00 -5.7038361038899188e+00 2.3125387393755954e+01 0 -1 0
1393 637 4 -1.1794000000000000e+00 -4.5681689780460450e+00 -4.7604277274513134e+00 2.1771270961103902e+01 -1 -1 0
1363 627 4 -1.1794000000000000e+00 -1.2068142009117235e+00 -6.4865808299144998e+00 1.8767095871615123e+01 -2 -2 0