LAMMPS Description

     3460  atoms
     1584  bonds
     792  angles
     0  dihedrals
     0  impropers

     3  atom types
     1  bond types
     1  angle types

  -1.598683e+01 1.598683e+01 xlo xhi
  -1.491000e+01 1.491000e+01 ylo yhi
  -2.023500e+01 6.070500e+01 zlo zhi

Masses

    1  12.0
    2 15.9994
    3 1.008

Atoms # full

1 1 1 0.0 -23.9802480367 -14.2 0.0
2 1 1 0.0 -22.7504919633 -13.49 0.0
3 2 1 0.0 -21.5207358899 -14.2 0.0
4 2 1 0.0 -20.2909798166 -13.49 0.0
5 3 1 0.0 -19.0612237432 -14.2 0.0
6 3 1 0.0 -17.8314676698 -13.49 0.0
7 4 1 0.0 -16.6017115964 -14.2 0.0
8 4 1 0.0 -15.3719555231 -13.49 0.0
9 5 1 0.0 -14.1421994497 -14.2 0.0
10 5 1 0.0 -12.9124433763 -13.49 0.0
11 6 1 0.0 -11.6826873029 -14.2 0.0
12 6 1 0.0 -10.4529312296 -13.49 0.0
13 7 1 0.0 -9.2231751562 -14.2 0.0
14 7 1 0.0 -7.99341908283 -13.49 0.0
15 8 1 0.0 -6.76366300945 -14.2 0.0
16 8 1 0.0 -5.53390693608 -13.49 0.0
17 9 1 0.0 -4.3041508627 -14.2 0.0
18 9 1 0.0 -3.07439478933 -13.49 0.0
19 10 1 0.0 -1.84463871596 -14.2 0.0
20 10 1 0.0 -0.614882642583 -13.49 0.0
21 11 1 0.0 0.614873430791 -14.2 0.0
22 11 1 0.0 1.84462950416 -13.49 0.0
23 12 1 0.0 3.07438557754 -14.2 0.0
24 12 1 0.0 4.30414165091 -13.49 0.0
25 13 1 0.0 5.53389772429 -14.2 0.0
26 13 1 0.0 6.76365379766 -13.49 0.0
27 14 1 0.0 -22.7504919633 -12.07 0.0
28 14 1 0.0 -21.5207358899 -11.36 0.0
29 15 1 0.0 -20.2909798166 -12.07 0.0
30 15 1 0.0 -19.0612237432 -11.36 0.0
31 16 1 0.0 -17.8314676698 -12.07 0.0
32 16 1 0.0 -16.6017115964 -11.36 0.0
33 17 1 0.0 -15.3719555231 -12.07 0.0
34 17 1 0.0 -14.1421994497 -11.36 0.0
35 18 1 0.0 -12.9124433763 -12.07 0.0
36 18 1 0.0 -11.6826873029 -11.36 0.0
37 19 1 0.0 -10.4529312296 -12.07 0.0
38 19 1 0.0 -9.2231751562 -11.36 0.0
39 20 1 0.0 -7.99341908283 -12.07 0.0
40 20 1 0.0 -6.76366300945 -11.36 0.0
41 21 1 0.0 -5.53390693608 -12.07 0.0
42 21 1 0.0 -4.3041508627 -11.36 0.0
43 22 1 0.0 -3.07439478933 -12.07 0.0
44 22 1 0.0 -1.84463871596 -11.36 0.0
45 23 1 0.0 -0.614882642583 -12.07 0.0
46 23 1 0.0 0.614873430791 -11.36 0.0
47 24 1 0.0 1.84462950416 -12.07 0.0
48 24 1 0.0 3.07438557754 -11.36 0.0
49 25 1 0.0 4.30414165091 -12.07 0.0
50 25 1 0.0 5.53389772429 -11.36 0.0
51 26 1 0.0 6.76365379766 -12.07 0.0
52 26 1 0.0 7.99340987103 -11.36 0.0
53 27 1 0.0 -21.5207358899 -9.94 0.0
54 27 1 0.0 -20.2909798166 -9.23 0.0
55 28 1 0.0 -19.0612237432 -9.94 0.0
56 28 1 0.0 -17.8314676698 -9.23 0.0
57 29 1 0.0 -16.6017115964 -9.94 0.0
58 29 1 0.0 -15.3719555231 -9.23 0.0
59 30 1 0.0 -14.1421994497 -9.94 0.0
60 30 1 0.0 -12.9124433763 -9.23 0.0
61 31 1 0.0 -11.6826873029 -9.94 0.0
62 31 1 0.0 -10.4529312296 -9.23 0.0
63 32 1 0.0 -9.2231751562 -9.94 0.0
64 32 1 0.0 -7.99341908283 -9.23 0.0
65 33 1 0.0 -6.76366300945 -9.94 0.0
66 33 1 0.0 -5.53390693608 -9.23 0.0
67 34 1 0.0 -4.3041508627 -9.94 0.0
68 34 1 0.0 -3.07439478933 -9.23 0.0
69 35 1 0.0 -1.84463871596 -9.94 0.0
70 35 1 0.0 -0.614882642583 -9.23 0.0
71 36 1 0.0 0.614873430791 -9.94 0.0
72 36 1 0.0 1.84462950416 -9.23 0.0
73 37 1 0.0 3.07438557754 -9.94 0.0
74 37 1 0.0 4.30414165091 -9.23 0.0
75 38 1 0.0 5.53389772429 -9.94 0.0
76 38 1 0.0 6.76365379766 -9.23 0.0
77 39 1 0.0 7.99340987103 -9.94 0.0
78 39 1 0.0 9.22316594441 -9.23 0.0
79 40 1 0.0 -20.2909798166 -7.81 0.0
80 40 1 0.0 -19.0612237432 -7.1 0.0
81 41 1 0.0 -17.8314676698 -7.81 0.0
82 41 1 0.0 -16.6017115964 -7.1 0.0
83 42 1 0.0 -15.3719555231 -7.81 0.0
84 42 1 0.0 -14.1421994497 -7.1 0.0
85 43 1 0.0 -12.9124433763 -7.81 0.0
86 43 1 0.0 -11.6826873029 -7.1 0.0
87 44 1 0.0 -10.4529312296 -7.81 0.0
88 44 1 0.0 -9.2231751562 -7.1 0.0
89 45 1 0.0 -7.99341908283 -7.81 0.0
90 45 1 0.0 -6.76366300945 -7.1 0.0
91 46 1 0.0 -5.53390693608 -7.81 0.0
92 46 1 0.0 -4.3041508627 -7.1 0.0
93 47 1 0.0 -3.07439478933 -7.81 0.0
94 47 1 0.0 -1.84463871596 -7.1 0.0
95 48 1 0.0 -0.614882642583 -7.81 0.0
96 48 1 0.0 0.614873430791 -7.1 0.0
97 49 1 0.0 1.84462950416 -7.81 0.0
98 49 1 0.0 3.07438557754 -7.1 0.0
99 50 1 0.0 4.30414165091 -7.81 0.0
100 50 1 0.0 5.53389772429 -7.1 0.0
101 51 1 0.0 6.76365379766 -7.81 0.0
102 51 1 0.0 7.99340987103 -7.1 0.0
103 52 1 0.0 9.22316594441 -7.81 0.0
104 52 1 0.0 10.4529220178 -7.1 0.0
105 53 1 0.0 -19.0612237432 -5.68 0.0
106 53 1 0.0 -17.8314676698 -4.97 0.0
107 54 1 0.0 -16.6017115964 -5.68 0.0
108 54 1 0.0 -15.3719555231 -4.97 0.0
109 55 1 0.0 -14.1421994497 -5.68 0.0
110 55 1 0.0 -12.9124433763 -4.97 0.0
111 56 1 0.0 -11.6826873029 -5.68 0.0
112 56 1 0.0 -10.4529312296 -4.97 0.0
113 57 1 0.0 -9.2231751562 -5.68 0.0
114 57 1 0.0 -7.99341908283 -4.97 0.0
115 58 1 0.0 -6.76366300945 -5.68 0.0
116 58 1 0.0 -5.53390693608 -4.97 0.0
117 59 1 0.0 -4.3041508627 -5.68 0.0
118 59 1 0.0 -3.07439478933 -4.97 0.0
119 60 1 0.0 -1.84463871596 -5.68 0.0
120 60 1 0.0 -0.614882642583 -4.97 0.0
121 61 1 0.0 0.614873430791 -5.68 0.0
122 61 1 0.0 1.84462950416 -4.97 0.0
123 62 1 0.0 3.07438557754 -5.68 0.0
124 62 1 0.0 4.30414165091 -4.97 0.0
125 63 1 0.0 5.53389772429 -5.68 0.0
126 63 1 0.0 6.76365379766 -4.97 0.0
127 64 1 0.0 7.99340987103 -5.68 0.0
128 64 1 0.0 9.22316594441 -4.97 0.0
129 65 1 0.0 10.4529220178 -5.68 0.0
130 65 1 0.0 11.6826780912 -4.97 0.0
131 66 1 0.0 -17.8314676698 -3.55 0.0
132 66 1 0.0 -16.6017115964 -2.84 0.0
133 67 1 0.0 -15.3719555231 -3.55 0.0
134 67 1 0.0 -14.1421994497 -2.84 0.0
135 68 1 0.0 -12.9124433763 -3.55 0.0
136 68 1 0.0 -11.6826873029 -2.84 0.0
137 69 1 0.0 -10.4529312296 -3.55 0.0
138 69 1 0.0 -9.2231751562 -2.84 0.0
139 70 1 0.0 -7.99341908283 -3.55 0.0
140 70 1 0.0 -6.76366300945 -2.84 0.0
141 71 1 0.0 -5.53390693608 -3.55 0.0
142 71 1 0.0 -4.3041508627 -2.84 0.0
143 72 1 0.0 -3.07439478933 -3.55 0.0
144 73 1 0.0 4.30414165091 -3.55 0.0
145 73 1 0.0 5.53389772429 -2.84 0.0
146 74 1 0.0 6.76365379766 -3.55 0.0
147 74 1 0.0 7.99340987103 -2.84 0.0
148 75 1 0.0 9.22316594441 -3.55 0.0
149 75 1 0.0 10.4529220178 -2.84 0.0
150 76 1 0.0 11.6826780912 -3.55 0.0
151 76 1 0.0 12.9124341645 -2.84 0.0
152 77 1 0.0 -16.6017115964 -1.42 0.0
153 77 1 0.0 -15.3719555231 -0.71 0.0
154 78 1 0.0 -14.1421994497 -1.42 0.0
155 78 1 0.0 -12.9124433763 -0.71 0.0
156 79 1 0.0 -11.6826873029 -1.42 0.0
157 79 1 0.0 -10.4529312296 -0.71 0.0
158 80 1 0.0 -9.2231751562 -1.42 0.0
159 80 1 0.0 -7.99341908283 -0.71 0.0
160 81 1 0.0 -6.76366300945 -1.42 0.0
161 81 1 0.0 -5.53390693608 -0.71 0.0
162 82 1 0.0 -4.3041508627 -1.42 0.0
163 83 1 0.0 4.30414165091 -0.71 0.0
164 84 1 0.0 5.53389772429 -1.42 0.0
165 84 1 0.0 6.76365379766 -0.71 0.0
166 85 1 0.0 7.99340987103 -1.42 0.0
167 85 1 0.0 9.22316594441 -0.71 0.0
168 86 1 0.0 10.4529220178 -1.42 0.0
169 86 1 0.0 11.6826780912 -0.71 0.0
170 87 1 0.0 12.9124341645 -1.42 0.0
171 87 1 0.0 14.1421902379 -0.71 0.0
172 88 1 0.0 -15.3719555231 0.71 0.0
173 88 1 0.0 -14.1421994497 1.42 0.0
174 89 1 0.0 -12.9124433763 0.71 0.0
175 89 1 0.0 -11.6826873029 1.42 0.0
176 90 1 0.0 -10.4529312296 0.71 0.0
177 90 1 0.0 -9.2231751562 1.42 0.0
178 91 1 0.0 -7.99341908283 0.71 0.0
179 91 1 0.0 -6.76366300945 1.42 0.0
180 92 1 0.0 -5.53390693608 0.71 0.0
181 92 1 0.0 -4.3041508627 1.42 0.0
182 93 1 0.0 4.30414165091 0.71 0.0
183 93 1 0.0 5.53389772429 1.42 0.0
184 94 1 0.0 6.76365379766 0.71 0.0
185 94 1 0.0 7.99340987103 1.42 0.0
186 95 1 0.0 9.22316594441 0.71 0.0
187 95 1 0.0 10.4529220178 1.42 0.0
188 96 1 0.0 11.6826780912 0.71 0.0
189 96 1 0.0 12.9124341645 1.42 0.0
190 97 1 0.0 14.1421902379 0.71 0.0
191 97 1 0.0 15.3719463113 1.42 0.0
192 98 1 0.0 -14.1421994497 2.84 0.0
193 98 1 0.0 -12.9124433763 3.55 0.0
194 99 1 0.0 -11.6826873029 2.84 0.0
195 99 1 0.0 -10.4529312296 3.55 0.0
196 100 1 0.0 -9.2231751562 2.84 0.0
197 100 1 0.0 -7.99341908283 3.55 0.0
198 101 1 0.0 -6.76366300945 2.84 0.0
199 101 1 0.0 -5.53390693608 3.55 0.0
200 102 1 0.0 -4.3041508627 2.84 0.0
201 102 1 0.0 -3.07439478933 3.55 0.0
202 103 1 0.0 4.30414165091 3.55 0.0
203 104 1 0.0 5.53389772429 2.84 0.0
204 104 1 0.0 6.76365379766 3.55 0.0
205 105 1 0.0 7.99340987103 2.84 0.0
206 105 1 0.0 9.22316594441 3.55 0.0
207 106 1 0.0 10.4529220178 2.84 0.0
208 106 1 0.0 11.6826780912 3.55 0.0
209 107 1 0.0 12.9124341645 2.84 0.0
210 107 1 0.0 14.1421902379 3.55 0.0
211 108 1 0.0 15.3719463113 2.84 0.0
212 108 1 0.0 16.6017023847 3.55 0.0
213 109 1 0.0 -12.9124433763 4.97 0.0
214 109 1 0.0 -11.6826873029 5.68 0.0
215 110 1 0.0 -10.4529312296 4.97 0.0
216 110 1 0.0 -9.2231751562 5.68 0.0
217 111 1 0.0 -7.99341908283 4.97 0.0
218 111 1 0.0 -6.76366300945 5.68 0.0
219 112 1 0.0 -5.53390693608 4.97 0.0
220 112 1 0.0 -4.3041508627 5.68 0.0
221 113 1 0.0 -3.07439478933 4.97 0.0
222 113 1 0.0 -1.84463871596 5.68 0.0
223 114 1 0.0 -0.614882642583 4.97 0.0
224 114 1 0.0 0.614873430791 5.68 0.0
225 115 1 0.0 1.84462950416 4.97 0.0
226 115 1 0.0 3.07438557754 5.68 0.0
227 116 1 0.0 4.30414165091 4.97 0.0
228 116 1 0.0 5.53389772429 5.68 0.0
229 117 1 0.0 6.76365379766 4.97 0.0
230 117 1 0.0 7.99340987103 5.68 0.0
231 118 1 0.0 9.22316594441 4.97 0.0
232 118 1 0.0 10.4529220178 5.68 0.0
233 119 1 0.0 11.6826780912 4.97 0.0
234 119 1 0.0 12.9124341645 5.68 0.0
235 120 1 0.0 14.1421902379 4.97 0.0
236 120 1 0.0 15.3719463113 5.68 0.0
237 121 1 0.0 16.6017023847 4.97 0.0
238 121 1 0.0 17.831458458 5.68 0.0
239 122 1 0.0 -11.6826873029 7.1 0.0
240 122 1 0.0 -10.4529312296 7.81 0.0
241 123 1 0.0 -9.2231751562 7.1 0.0
242 123 1 0.0 -7.99341908283 7.81 0.0
243 124 1 0.0 -6.76366300945 7.1 0.0
244 124 1 0.0 -5.53390693608 7.81 0.0
245 125 1 0.0 -4.3041508627 7.1 0.0
246 125 1 0.0 -3.07439478933 7.81 0.0
247 126 1 0.0 -1.84463871596 7.1 0.0
248 126 1 0.0 -0.614882642583 7.81 0.0
249 127 1 0.0 0.614873430791 7.1 0.0
250 127 1 0.0 1.84462950416 7.81 0.0
251 128 1 0.0 3.07438557754 7.1 0.0
252 128 1 0.0 4.30414165091 7.81 0.0
253 129 1 0.0 5.53389772429 7.1 0.0
254 129 1 0.0 6.76365379766 7.81 0.0
255 130 1 0.0 7.99340987103 7.1 0.0
256 130 1 0.0 9.22316594441 7.81 0.0
257 131 1 0.0 10.4529220178 7.1 0.0
258 131 1 0.0 11.6826780912 7.81 0.0
259 132 1 0.0 12.9124341645 7.1 0.0
260 132 1 0.0 14.1421902379 7.81 0.0
261 133 1 0.0 15.3719463113 7.1 0.0
262 133 1 0.0 16.6017023847 7.81 0.0
263 134 1 0.0 17.831458458 7.1 0.0
264 134 1 0.0 19.0612145314 7.81 0.0
265 135 1 0.0 -10.4529312296 9.23 0.0
266 135 1 0.0 -9.2231751562 9.94 0.0
267 136 1 0.0 -7.99341908283 9.23 0.0
268 136 1 0.0 -6.76366300945 9.94 0.0
269 137 1 0.0 -5.53390693608 9.23 0.0
270 137 1 0.0 -4.3041508627 9.94 0.0
271 138 1 0.0 -3.07439478933 9.23 0.0
272 138 1 0.0 -1.84463871596 9.94 0.0
273 139 1 0.0 -0.614882642583 9.23 0.0
274 139 1 0.0 0.614873430791 9.94 0.0
275 140 1 0.0 1.84462950416 9.23 0.0
276 140 1 0.0 3.07438557754 9.94 0.0
277 141 1 0.0 4.30414165091 9.23 0.0
278 141 1 0.0 5.53389772429 9.94 0.0
279 142 1 0.0 6.76365379766 9.23 0.0
280 142 1 0.0 7.99340987103 9.94 0.0
281 143 1 0.0 9.22316594441 9.23 0.0
282 143 1 0.0 10.4529220178 9.94 0.0
283 144 1 0.0 11.6826780912 9.23 0.0
284 144 1 0.0 12.9124341645 9.94 0.0
285 145 1 0.0 14.1421902379 9.23 0.0
286 145 1 0.0 15.3719463113 9.94 0.0
287 146 1 0.0 16.6017023847 9.23 0.0
288 146 1 0.0 17.831458458 9.94 0.0
289 147 1 0.0 19.0612145314 9.23 0.0
290 147 1 0.0 20.2909706048 9.94 0.0
291 148 1 0.0 -9.2231751562 11.36 0.0
292 148 1 0.0 -7.99341908283 12.07 0.0
293 149 1 0.0 -6.76366300945 11.36 0.0
294 149 1 0.0 -5.53390693608 12.07 0.0
295 150 1 0.0 -4.3041508627 11.36 0.0
296 150 1 0.0 -3.07439478933 12.07 0.0
297 151 1 0.0 -1.84463871596 11.36 0.0
298 151 1 0.0 -0.614882642583 12.07 0.0
299 152 1 0.0 0.614873430791 11.36 0.0
300 152 1 0.0 1.84462950416 12.07 0.0
301 153 1 0.0 3.07438557754 11.36 0.0
302 153 1 0.0 4.30414165091 12.07 0.0
303 154 1 0.0 5.53389772429 11.36 0.0
304 154 1 0.0 6.76365379766 12.07 0.0
305 155 1 0.0 7.99340987103 11.36 0.0
306 155 1 0.0 9.22316594441 12.07 0.0
307 156 1 0.0 10.4529220178 11.36 0.0
308 156 1 0.0 11.6826780912 12.07 0.0
309 157 1 0.0 12.9124341645 11.36 0.0
310 157 1 0.0 14.1421902379 12.07 0.0
311 158 1 0.0 15.3719463113 11.36 0.0
312 158 1 0.0 16.6017023847 12.07 0.0
313 159 1 0.0 17.831458458 11.36 0.0
314 159 1 0.0 19.0612145314 12.07 0.0
315 160 1 0.0 20.2909706048 11.36 0.0
316 160 1 0.0 21.5207266781 12.07 0.0
317 161 1 0.0 -7.99341908283 13.49 0.0
318 161 1 0.0 -6.76366300945 14.2 0.0
319 162 1 0.0 -5.53390693608 13.49 0.0
320 162 1 0.0 -4.3041508627 14.2 0.0
321 163 1 0.0 -3.07439478933 13.49 0.0
322 163 1 0.0 -1.84463871596 14.2 0.0
323 164 1 0.0 -0.614882642583 13.49 0.0
324 164 1 0.0 0.614873430791 14.2 0.0
325 165 1 0.0 1.84462950416 13.49 0.0
326 165 1 0.0 3.07438557754 14.2 0.0
327 166 1 0.0 4.30414165091 13.49 0.0
328 166 1 0.0 5.53389772429 14.2 0.0
329 167 1 0.0 6.76365379766 13.49 0.0
330 167 1 0.0 7.99340987103 14.2 0.0
331 168 1 0.0 9.22316594441 13.49 0.0
332 168 1 0.0 10.4529220178 14.2 0.0
333 169 1 0.0 11.6826780912 13.49 0.0
334 169 1 0.0 12.9124341645 14.2 0.0
335 170 1 0.0 14.1421902379 13.49 0.0
336 170 1 0.0 15.3719463113 14.2 0.0
337 171 1 0.0 16.6017023847 13.49 0.0
338 171 1 0.0 17.831458458 14.2 0.0
339 172 1 0.0 19.0612145314 13.49 0.0
340 172 1 0.0 20.2909706048 14.2 0.0
341 173 1 0.0 21.5207266781 13.49 0.0
342 173 1 0.0 22.7504827515 14.2 0.0
343 174 1 0.0 -23.9802480367 -14.2 41.89
344 174 1 0.0 -22.7504919633 -13.49 41.89
345 175 1 0.0 -21.5207358899 -14.2 41.89
346 175 1 0.0 -20.2909798166 -13.49 41.89
347 176 1 0.0 -19.0612237432 -14.2 41.89
348 176 1 0.0 -17.8314676698 -13.49 41.89
349 177 1 0.0 -16.6017115964 -14.2 41.89
350 177 1 0.0 -15.3719555231 -13.49 41.89
351 178 1 0.0 -14.1421994497 -14.2 41.89
352 178 1 0.0 -12.9124433763 -13.49 41.89
353 179 1 0.0 -11.6826873029 -14.2 41.89
354 179 1 0.0 -10.4529312296 -13.49 41.89
355 180 1 0.0 -9.2231751562 -14.2 41.89
356 180 1 0.0 -7.99341908283 -13.49 41.89
357 181 1 0.0 -6.76366300945 -14.2 41.89
358 181 1 0.0 -5.53390693608 -13.49 41.89
359 182 1 0.0 -4.3041508627 -14.2 41.89
360 182 1 0.0 -3.07439478933 -13.49 41.89
361 183 1 0.0 -1.84463871596 -14.2 41.89
362 183 1 0.0 -0.614882642583 -13.49 41.89
363 184 1 0.0 0.614873430791 -14.2 41.89
364 184 1 0.0 1.84462950416 -13.49 41.89
365 185 1 0.0 3.07438557754 -14.2 41.89
366 185 1 0.0 4.30414165091 -13.49 41.89
367 186 1 0.0 5.53389772429 -14.2 41.89
368 186 1 0.0 6.76365379766 -13.49 41.89
369 187 1 0.0 -22.7504919633 -12.07 41.89
370 187 1 0.0 -21.5207358899 -11.36 41.89
371 188 1 0.0 -20.2909798166 -12.07 41.89
372 188 1 0.0 -19.0612237432 -11.36 41.89
373 189 1 0.0 -17.8314676698 -12.07 41.89
374 189 1 0.0 -16.6017115964 -11.36 41.89
375 190 1 0.0 -15.3719555231 -12.07 41.89
376 190 1 0.0 -14.1421994497 -11.36 41.89
377 191 1 0.0 -12.9124433763 -12.07 41.89
378 191 1 0.0 -11.6826873029 -11.36 41.89
379 192 1 0.0 -10.4529312296 -12.07 41.89
380 192 1 0.0 -9.2231751562 -11.36 41.89
381 193 1 0.0 -7.99341908283 -12.07 41.89
382 193 1 0.0 -6.76366300945 -11.36 41.89
383 194 1 0.0 -5.53390693608 -12.07 41.89
384 194 1 0.0 -4.3041508627 -11.36 41.89
385 195 1 0.0 -3.07439478933 -12.07 41.89
386 195 1 0.0 -1.84463871596 -11.36 41.89
387 196 1 0.0 -0.614882642583 -12.07 41.89
388 196 1 0.0 0.614873430791 -11.36 41.89
389 197 1 0.0 1.84462950416 -12.07 41.89
390 197 1 0.0 3.07438557754 -11.36 41.89
391 198 1 0.0 4.30414165091 -12.07 41.89
392 198 1 0.0 5.53389772429 -11.36 41.89
393 199 1 0.0 6.76365379766 -12.07 41.89
394 199 1 0.0 7.99340987103 -11.36 41.89
395 200 1 0.0 -21.5207358899 -9.94 41.89
396 200 1 0.0 -20.2909798166 -9.23 41.89
397 201 1 0.0 -19.0612237432 -9.94 41.89
398 201 1 0.0 -17.8314676698 -9.23 41.89
399 202 1 0.0 -16.6017115964 -9.94 41.89
400 202 1 0.0 -15.3719555231 -9.23 41.89
401 203 1 0.0 -14.1421994497 -9.94 41.89
402 203 1 0.0 -12.9124433763 -9.23 41.89
403 204 1 0.0 -11.6826873029 -9.94 41.89
404 204 1 0.0 -10.4529312296 -9.23 41.89
405 205 1 0.0 -9.2231751562 -9.94 41.89
406 205 1 0.0 -7.99341908283 -9.23 41.89
407 206 1 0.0 -6.76366300945 -9.94 41.89
408 206 1 0.0 -5.53390693608 -9.23 41.89
409 207 1 0.0 -4.3041508627 -9.94 41.89
410 207 1 0.0 -3.07439478933 -9.23 41.89
411 208 1 0.0 -1.84463871596 -9.94 41.89
412 208 1 0.0 -0.614882642583 -9.23 41.89
413 209 1 0.0 0.614873430791 -9.94 41.89
414 209 1 0.0 1.84462950416 -9.23 41.89
415 210 1 0.0 3.07438557754 -9.94 41.89
416 210 1 0.0 4.30414165091 -9.23 41.89
417 211 1 0.0 5.53389772429 -9.94 41.89
418 211 1 0.0 6.76365379766 -9.23 41.89
419 212 1 0.0 7.99340987103 -9.94 41.89
420 212 1 0.0 9.22316594441 -9.23 41.89
421 213 1 0.0 -20.2909798166 -7.81 41.89
422 213 1 0.0 -19.0612237432 -7.1 41.89
423 214 1 0.0 -17.8314676698 -7.81 41.89
424 214 1 0.0 -16.6017115964 -7.1 41.89
425 215 1 0.0 -15.3719555231 -7.81 41.89
426 215 1 0.0 -14.1421994497 -7.1 41.89
427 216 1 0.0 -12.9124433763 -7.81 41.89
428 216 1 0.0 -11.6826873029 -7.1 41.89
429 217 1 0.0 -10.4529312296 -7.81 41.89
430 217 1 0.0 -9.2231751562 -7.1 41.89
431 218 1 0.0 -7.99341908283 -7.81 41.89
432 218 1 0.0 -6.76366300945 -7.1 41.89
433 219 1 0.0 -5.53390693608 -7.81 41.89
434 219 1 0.0 -4.3041508627 -7.1 41.89
435 220 1 0.0 -3.07439478933 -7.81 41.89
436 220 1 0.0 -1.84463871596 -7.1 41.89
437 221 1 0.0 -0.614882642583 -7.81 41.89
438 221 1 0.0 0.614873430791 -7.1 41.89
439 222 1 0.0 1.84462950416 -7.81 41.89
440 222 1 0.0 3.07438557754 -7.1 41.89
441 223 1 0.0 4.30414165091 -7.81 41.89
442 223 1 0.0 5.53389772429 -7.1 41.89
443 224 1 0.0 6.76365379766 -7.81 41.89
444 224 1 0.0 7.99340987103 -7.1 41.89
445 225 1 0.0 9.22316594441 -7.81 41.89
446 225 1 0.0 10.4529220178 -7.1 41.89
447 226 1 0.0 -19.0612237432 -5.68 41.89
448 226 1 0.0 -17.8314676698 -4.97 41.89
449 227 1 0.0 -16.6017115964 -5.68 41.89
450 227 1 0.0 -15.3719555231 -4.97 41.89
451 228 1 0.0 -14.1421994497 -5.68 41.89
452 228 1 0.0 -12.9124433763 -4.97 41.89
453 229 1 0.0 -11.6826873029 -5.68 41.89
454 229 1 0.0 -10.4529312296 -4.97 41.89
455 230 1 0.0 -9.2231751562 -5.68 41.89
456 230 1 0.0 -7.99341908283 -4.97 41.89
457 231 1 0.0 -6.76366300945 -5.68 41.89
458 231 1 0.0 -5.53390693608 -4.97 41.89
459 232 1 0.0 -4.3041508627 -5.68 41.89
460 232 1 0.0 -3.07439478933 -4.97 41.89
461 233 1 0.0 -1.84463871596 -5.68 41.89
462 233 1 0.0 -0.614882642583 -4.97 41.89
463 234 1 0.0 0.614873430791 -5.68 41.89
464 234 1 0.0 1.84462950416 -4.97 41.89
465 235 1 0.0 3.07438557754 -5.68 41.89
466 235 1 0.0 4.30414165091 -4.97 41.89
467 236 1 0.0 5.53389772429 -5.68 41.89
468 236 1 0.0 6.76365379766 -4.97 41.89
469 237 1 0.0 7.99340987103 -5.68 41.89
470 237 1 0.0 9.22316594441 -4.97 41.89
471 238 1 0.0 10.4529220178 -5.68 41.89
472 238 1 0.0 11.6826780912 -4.97 41.89
473 239 1 0.0 -17.8314676698 -3.55 41.89
474 239 1 0.0 -16.6017115964 -2.84 41.89
475 240 1 0.0 -15.3719555231 -3.55 41.89
476 240 1 0.0 -14.1421994497 -2.84 41.89
477 241 1 0.0 -12.9124433763 -3.55 41.89
478 241 1 0.0 -11.6826873029 -2.84 41.89
479 242 1 0.0 -10.4529312296 -3.55 41.89
480 242 1 0.0 -9.2231751562 -2.84 41.89
481 243 1 0.0 -7.99341908283 -3.55 41.89
482 243 1 0.0 -6.76366300945 -2.84 41.89
483 244 1 0.0 -5.53390693608 -3.55 41.89
484 244 1 0.0 -4.3041508627 -2.84 41.89
485 245 1 0.0 -3.07439478933 -3.55 41.89
486 246 1 0.0 4.30414165091 -3.55 41.89
487 246 1 0.0 5.53389772429 -2.84 41.89
488 247 1 0.0 6.76365379766 -3.55 41.89
489 247 1 0.0 7.99340987103 -2.84 41.89
490 248 1 0.0 9.22316594441 -3.55 41.89
491 248 1 0.0 10.4529220178 -2.84 41.89
492 249 1 0.0 11.6826780912 -3.55 41.89
493 249 1 0.0 12.9124341645 -2.84 41.89
494 250 1 0.0 -16.6017115964 -1.42 41.89
495 250 1 0.0 -15.3719555231 -0.71 41.89
496 251 1 0.0 -14.1421994497 -1.42 41.89
497 251 1 0.0 -12.9124433763 -0.71 41.89
498 252 1 0.0 -11.6826873029 -1.42 41.89
499 252 1 0.0 -10.4529312296 -0.71 41.89
500 253 1 0.0 -9.2231751562 -1.42 41.89
501 253 1 0.0 -7.99341908283 -0.71 41.89
502 254 1 0.0 -6.76366300945 -1.42 41.89
503 254 1 0.0 -5.53390693608 -0.71 41.89
504 255 1 0.0 -4.3041508627 -1.42 41.89
505 256 1 0.0 4.30414165091 -0.71 41.89
506 257 1 0.0 5.53389772429 -1.42 41.89
507 257 1 0.0 6.76365379766 -0.71 41.89
508 258 1 0.0 7.99340987103 -1.42 41.89
509 258 1 0.0 9.22316594441 -0.71 41.89
510 259 1 0.0 10.4529220178 -1.42 41.89
511 259 1 0.0 11.6826780912 -0.71 41.89
512 260 1 0.0 12.9124341645 -1.42 41.89
513 260 1 0.0 14.1421902379 -0.71 41.89
514 261 1 0.0 -15.3719555231 0.71 41.89
515 261 1 0.0 -14.1421994497 1.42 41.89
516 262 1 0.0 -12.9124433763 0.71 41.89
517 262 1 0.0 -11.6826873029 1.42 41.89
518 263 1 0.0 -10.4529312296 0.71 41.89
519 263 1 0.0 -9.2231751562 1.42 41.89
520 264 1 0.0 -7.99341908283 0.71 41.89
521 264 1 0.0 -6.76366300945 1.42 41.89
522 265 1 0.0 -5.53390693608 0.71 41.89
523 265 1 0.0 -4.3041508627 1.42 41.89
524 266 1 0.0 4.30414165091 0.71 41.89
525 266 1 0.0 5.53389772429 1.42 41.89
526 267 1 0.0 6.76365379766 0.71 41.89
527 267 1 0.0 7.99340987103 1.42 41.89
528 268 1 0.0 9.22316594441 0.71 41.89
529 268 1 0.0 10.4529220178 1.42 41.89
530 269 1 0.0 11.6826780912 0.71 41.89
531 269 1 0.0 12.9124341645 1.42 41.89
532 270 1 0.0 14.1421902379 0.71 41.89
533 270 1 0.0 15.3719463113 1.42 41.89
534 271 1 0.0 -14.1421994497 2.84 41.89
535 271 1 0.0 -12.9124433763 3.55 41.89
536 272 1 0.0 -11.6826873029 2.84 41.89
537 272 1 0.0 -10.4529312296 3.55 41.89
538 273 1 0.0 -9.2231751562 2.84 41.89
539 273 1 0.0 -7.99341908283 3.55 41.89
540 274 1 0.0 -6.76366300945 2.84 41.89
541 274 1 0.0 -5.53390693608 3.55 41.89
542 275 1 0.0 -4.3041508627 2.84 41.89
543 275 1 0.0 -3.07439478933 3.55 41.89
544 276 1 0.0 4.30414165091 3.55 41.89
545 277 1 0.0 5.53389772429 2.84 41.89
546 277 1 0.0 6.76365379766 3.55 41.89
547 278 1 0.0 7.99340987103 2.84 41.89
548 278 1 0.0 9.22316594441 3.55 41.89
549 279 1 0.0 10.4529220178 2.84 41.89
550 279 1 0.0 11.6826780912 3.55 41.89
551 280 1 0.0 12.9124341645 2.84 41.89
552 280 1 0.0 14.1421902379 3.55 41.89
553 281 1 0.0 15.3719463113 2.84 41.89
554 281 1 0.0 16.6017023847 3.55 41.89
555 282 1 0.0 -12.9124433763 4.97 41.89
556 282 1 0.0 -11.6826873029 5.68 41.89
557 283 1 0.0 -10.4529312296 4.97 41.89
558 283 1 0.0 -9.2231751562 5.68 41.89
559 284 1 0.0 -7.99341908283 4.97 41.89
560 284 1 0.0 -6.76366300945 5.68 41.89
561 285 1 0.0 -5.53390693608 4.97 41.89
562 285 1 0.0 -4.3041508627 5.68 41.89
563 286 1 0.0 -3.07439478933 4.97 41.89
564 286 1 0.0 -1.84463871596 5.68 41.89
565 287 1 0.0 -0.614882642583 4.97 41.89
566 287 1 0.0 0.614873430791 5.68 41.89
567 288 1 0.0 1.84462950416 4.97 41.89
568 288 1 0.0 3.07438557754 5.68 41.89
569 289 1 0.0 4.30414165091 4.97 41.89
570 289 1 0.0 5.53389772429 5.68 41.89
571 290 1 0.0 6.76365379766 4.97 41.89
572 290 1 0.0 7.99340987103 5.68 41.89
573 291 1 0.0 9.22316594441 4.97 41.89
574 291 1 0.0 10.4529220178 5.68 41.89
575 292 1 0.0 11.6826780912 4.97 41.89
576 292 1 0.0 12.9124341645 5.68 41.89
577 293 1 0.0 14.1421902379 4.97 41.89
578 293 1 0.0 15.3719463113 5.68 41.89
579 294 1 0.0 16.6017023847 4.97 41.89
580 294 1 0.0 17.831458458 5.68 41.89
581 295 1 0.0 -11.6826873029 7.1 41.89
582 295 1 0.0 -10.4529312296 7.81 41.89
583 296 1 0.0 -9.2231751562 7.1 41.89
584 296 1 0.0 -7.99341908283 7.81 41.89
585 297 1 0.0 -6.76366300945 7.1 41.89
586 297 1 0.0 -5.53390693608 7.81 41.89
587 298 1 0.0 -4.3041508627 7.1 41.89
588 298 1 0.0 -3.07439478933 7.81 41.89
589 299 1 0.0 -1.84463871596 7.1 41.89
590 299 1 0.0 -0.614882642583 7.81 41.89
591 300 1 0.0 0.614873430791 7.1 41.89
592 300 1 0.0 1.84462950416 7.81 41.89
593 301 1 0.0 3.07438557754 7.1 41.89
594 301 1 0.0 4.30414165091 7.81 41.89
595 302 1 0.0 5.53389772429 7.1 41.89
596 302 1 0.0 6.76365379766 7.81 41.89
597 303 1 0.0 7.99340987103 7.1 41.89
598 303 1 0.0 9.22316594441 7.81 41.89
599 304 1 0.0 10.4529220178 7.1 41.89
600 304 1 0.0 11.6826780912 7.81 41.89
601 305 1 0.0 12.9124341645 7.1 41.89
602 305 1 0.0 14.1421902379 7.81 41.89
603 306 1 0.0 15.3719463113 7.1 41.89
604 306 1 0.0 16.6017023847 7.81 41.89
605 307 1 0.0 17.831458458 7.1 41.89
606 307 1 0.0 19.0612145314 7.81 41.89
607 308 1 0.0 -10.4529312296 9.23 41.89
608 308 1 0.0 -9.2231751562 9.94 41.89
609 309 1 0.0 -7.99341908283 9.23 41.89
610 309 1 0.0 -6.76366300945 9.94 41.89
611 310 1 0.0 -5.53390693608 9.23 41.89
612 310 1 0.0 -4.3041508627 9.94 41.89
613 311 1 0.0 -3.07439478933 9.23 41.89
614 311 1 0.0 -1.84463871596 9.94 41.89
615 312 1 0.0 -0.614882642583 9.23 41.89
616 312 1 0.0 0.614873430791 9.94 41.89
617 313 1 0.0 1.84462950416 9.23 41.89
618 313 1 0.0 3.07438557754 9.94 41.89
619 314 1 0.0 4.30414165091 9.23 41.89
620 314 1 0.0 5.53389772429 9.94 41.89
621 315 1 0.0 6.76365379766 9.23 41.89
622 315 1 0.0 7.99340987103 9.94 41.89
623 316 1 0.0 9.22316594441 9.23 41.89
624 316 1 0.0 10.4529220178 9.94 41.89
625 317 1 0.0 11.6826780912 9.23 41.89
626 317 1 0.0 12.9124341645 9.94 41.89
627 318 1 0.0 14.1421902379 9.23 41.89
628 318 1 0.0 15.3719463113 9.94 41.89
629 319 1 0.0 16.6017023847 9.23 41.89
630 319 1 0.0 17.831458458 9.94 41.89
631 320 1 0.0 19.0612145314 9.23 41.89
632 320 1 0.0 20.2909706048 9.94 41.89
633 321 1 0.0 -9.2231751562 11.36 41.89
634 321 1 0.0 -7.99341908283 12.07 41.89
635 322 1 0.0 -6.76366300945 11.36 41.89
636 322 1 0.0 -5.53390693608 12.07 41.89
637 323 1 0.0 -4.3041508627 11.36 41.89
638 323 1 0.0 -3.07439478933 12.07 41.89
639 324 1 0.0 -1.84463871596 11.36 41.89
640 324 1 0.0 -0.614882642583 12.07 41.89
641 325 1 0.0 0.614873430791 11.36 41.89
642 325 1 0.0 1.84462950416 12.07 41.89
643 326 1 0.0 3.07438557754 11.36 41.89
644 326 1 0.0 4.30414165091 12.07 41.89
645 327 1 0.0 5.53389772429 11.36 41.89
646 327 1 0.0 6.76365379766 12.07 41.89
647 328 1 0.0 7.99340987103 11.36 41.89
648 328 1 0.0 9.22316594441 12.07 41.89
649 329 1 0.0 10.4529220178 11.36 41.89
650 329 1 0.0 11.6826780912 12.07 41.89
651 330 1 0.0 12.9124341645 11.36 41.89
652 330 1 0.0 14.1421902379 12.07 41.89
653 331 1 0.0 15.3719463113 11.36 41.89
654 331 1 0.0 16.6017023847 12.07 41.89
655 332 1 0.0 17.831458458 11.36 41.89
656 332 1 0.0 19.0612145314 12.07 41.89
657 333 1 0.0 20.2909706048 11.36 41.89
658 333 1 0.0 21.5207266781 12.07 41.89
659 334 1 0.0 -7.99341908283 13.49 41.89
660 334 1 0.0 -6.76366300945 14.2 41.89
661 335 1 0.0 -5.53390693608 13.49 41.89
662 335 1 0.0 -4.3041508627 14.2 41.89
663 336 1 0.0 -3.07439478933 13.49 41.89
664 336 1 0.0 -1.84463871596 14.2 41.89
665 337 1 0.0 -0.614882642583 13.49 41.89
666 337 1 0.0 0.614873430791 14.2 41.89
667 338 1 0.0 1.84462950416 13.49 41.89
668 338 1 0.0 3.07438557754 14.2 41.89
669 339 1 0.0 4.30414165091 13.49 41.89
670 339 1 0.0 5.53389772429 14.2 41.89
671 340 1 0.0 6.76365379766 13.49 41.89
672 340 1 0.0 7.99340987103 14.2 41.89
673 341 1 0.0 9.22316594441 13.49 41.89
674 341 1 0.0 10.4529220178 14.2 41.89
675 342 1 0.0 11.6826780912 13.49 41.89
676 342 1 0.0 12.9124341645 14.2 41.89
677 343 1 0.0 14.1421902379 13.49 41.89
678 343 1 0.0 15.3719463113 14.2 41.89
679 344 1 0.0 16.6017023847 13.49 41.89
680 344 1 0.0 17.831458458 14.2 41.89
681 345 1 0.0 19.0612145314 13.49 41.89
682 345 1 0.0 20.2909706048 14.2 41.89
683 346 1 0.0 21.5207266781 13.49 41.89
684 346 1 0.0 22.7504827515 14.2 41.89
685 347 1 0.0 -0.614878036687 3.882187 -0.355
686 347 1 0.0 0.614878036687 3.882187 0.355
687 348 1 0.0 -1.78444552186 3.50217148102 1.775
688 348 1 0.0 -0.614877994824 3.88218700663 2.485
689 349 1 0.0 -2.77933904639 2.77933901642 3.905
690 349 1 0.0 -1.78444548409 3.50217150026 4.615
691 350 1 0.0 -3.50217150026 1.78444548409 6.035
692 350 1 0.0 -2.77933901642 2.77933904639 6.745
693 351 1 0.0 -3.88218700663 0.614877994824 8.165
694 351 1 0.0 -3.50217148102 1.78444552186 8.875
695 352 1 0.0 -3.882187 -0.614878036687 10.295
696 352 1 0.0 -3.882187 0.614878036687 11.005
697 353 1 0.0 -3.50217148102 -1.78444552186 12.425
698 353 1 0.0 -3.88218700663 -0.614877994824 13.135
699 354 1 0.0 -2.77933901642 -2.77933904639 14.555
700 354 1 0.0 -3.50217150026 -1.78444548409 15.265
701 355 1 0.0 -1.78444548409 -3.50217150026 16.685
702 355 1 0.0 -2.77933904639 -2.77933901642 17.395
703 356 1 0.0 -0.614877994824 -3.88218700663 18.815
704 356 1 0.0 -1.78444552186 -3.50217148102 19.525
705 357 1 0.0 0.614878036687 -3.882187 20.945
706 357 1 0.0 -0.614878036687 -3.882187 21.655
707 358 1 0.0 1.78444552186 -3.50217148102 23.075
708 358 1 0.0 0.614877994824 -3.88218700663 23.785
709 359 1 0.0 2.77933904639 -2.77933901642 25.205
710 359 1 0.0 1.78444548409 -3.50217150026 25.915
711 360 1 0.0 3.50217150026 -1.78444548409 27.335
712 360 1 0.0 2.77933901642 -2.77933904639 28.045
713 361 1 0.0 3.88218700663 -0.614877994824 29.465
714 361 1 0.0 3.50217148102 -1.78444552186 30.175
715 362 1 0.0 3.882187 0.614878036687 31.595
716 362 1 0.0 3.882187 -0.614878036687 32.305
717 363 1 0.0 3.50217148102 1.78444552186 33.725
718 363 1 0.0 3.88218700663 0.614877994824 34.435
719 364 1 0.0 2.77933901642 2.77933904639 35.855
720 364 1 0.0 3.50217150026 1.78444548409 36.565
721 365 1 0.0 1.78444548409 3.50217150026 37.985
722 365 1 0.0 2.77933904639 2.77933901642 38.695
723 366 1 0.0 0.614877994824 3.88218700663 40.115
724 366 1 0.0 1.78444552186 3.50217148102 40.825
725 367 1 0.0 -2.77933904639 2.77933901642 -0.355
726 367 1 0.0 -1.78444548409 3.50217150026 0.355
727 368 1 0.0 -3.50217150026 1.78444548409 1.775
728 368 1 0.0 -2.77933901642 2.77933904639 2.485
729 369 1 0.0 -3.88218700663 0.614877994824 3.905
730 369 1 0.0 -3.50217148102 1.78444552186 4.615
731 370 1 0.0 -3.882187 -0.614878036687 6.035
732 370 1 0.0 -3.882187 0.614878036687 6.745
733 371 1 0.0 -3.50217148102 -1.78444552186 8.165
734 371 1 0.0 -3.88218700663 -0.614877994824 8.875
735 372 1 0.0 -2.77933901642 -2.77933904639 10.295
736 372 1 0.0 -3.50217150026 -1.78444548409 11.005
737 373 1 0.0 -1.78444548409 -3.50217150026 12.425
738 373 1 0.0 -2.77933904639 -2.77933901642 13.135
739 374 1 0.0 -0.614877994824 -3.88218700663 14.555
740 374 1 0.0 -1.78444552186 -3.50217148102 15.265
741 375 1 0.0 0.614878036687 -3.882187 16.685
742 375 1 0.0 -0.614878036687 -3.882187 17.395
743 376 1 0.0 1.78444552186 -3.50217148102 18.815
744 376 1 0.0 0.614877994824 -3.88218700663 19.525
745 377 1 0.0 2.77933904639 -2.77933901642 20.945
746 377 1 0.0 1.78444548409 -3.50217150026 21.655
747 378 1 0.0 3.50217150026 -1.78444548409 23.075
748 378 1 0.0 2.77933901642 -2.77933904639 23.785
749 379 1 0.0 3.88218700663 -0.614877994824 25.205