LAMMPS (16 Feb 2016)
Reading data file ...
  orthogonal box = (-10.6274 -9.91155 13.4097) to (10.6274 9.91155 66.5903)
  1 by 1 by 2 MPI processor grid
  reading atoms ...
  2454 atoms
  reading velocities ...
  2454 velocities
  scanning bonds ...
  2 = max bonds/atom
  scanning angles ...
  1 = max angles/atom
  reading bonds ...
  972 bonds
  reading angles ...
  486 angles
Finding 1-2 1-3 1-4 neighbors ...
 Special bond factors lj:   0          0          0         
 Special bond factors coul: 0          0          0         
  2 = max # of 1-2 neighbors
  1 = max # of 1-3 neighbors
  1 = max # of 1-4 neighbors
  2 = max # of special neighbors
996 atoms in group Cgraphene
1458 atoms in group spce
Finding SHAKE clusters ...
  0 = # of size 2 clusters
  0 = # of size 3 clusters
  0 = # of size 4 clusters
  486 = # of frozen angles
1458 atoms in group mobile
dynamic group gf defined
dynamic group gw1 defined
dynamic group gw2 defined
PPPM initialization ...
  G vector (1/distance) = 0.319096
  grid = 15 15 30
  stencil order = 5
  estimated absolute RMS force accuracy = 0.0281203
  estimated relative force accuracy = 8.46836e-05
  using double precision FFTs
  3d grid and FFT values/proc = 10648 3375
WARNING: Neighbor exclusions used with KSpace solver may give inconsistent Coulombic energies (../neighbor.cpp:461)
Neighbor list info ...
  1 neighbor list requests
  update every 1 steps, delay 10 steps, check yes
  max neighbors/atom: 2000, page size: 100000
  master list distance cutoff = 10.5
  ghost atom cutoff = 10.5
  binsize = 5.25, bins = 5 4 11
Setting up Verlet run ...
  Unit style  : real
  Current step: 0
  Time step   : 1
SHAKE stats (type/ave/delta) on step 0
  1 0.957304 0.0121377 2916
  1 104.514 1.04272
Memory usage per processor = 9.00568 Mbytes
Step Temp PotEng TotEng Press Volume E_pair 
       0     145.4172   -12222.299   -11369.681   -2419.3529    22406.916   -12222.299 
SHAKE stats (type/ave/delta) on step 100
  1 0.9572 2.03569e-06 2916
  1 104.52 0.000214279
SHAKE stats (type/ave/delta) on step 200
  1 0.957199 1.18024e-05 2916
  1 104.52 0.00112802
SHAKE stats (type/ave/delta) on step 300
  1 0.957199 1.43539e-05 2916
  1 104.52 0.00137054
SHAKE stats (type/ave/delta) on step 400
  1 0.9572 6.52176e-06 2916
  1 104.52 0.000638636
SHAKE stats (type/ave/delta) on step 500
  1 0.9572 2.30452e-06 2916
  1 104.52 0.000246956
SHAKE stats (type/ave/delta) on step 600
  1 0.9572 2.00434e-06 2916
  1 104.52 0.000195158
SHAKE stats (type/ave/delta) on step 700
  1 0.9572 3.77981e-06 2916
  1 104.52 0.000316171
SHAKE stats (type/ave/delta) on step 800
  1 0.9572 4.98373e-06 2916
  1 104.52 0.000229252
SHAKE stats (type/ave/delta) on step 900
  1 0.9572 2.53558e-06 2916
  1 104.52 0.000189255
SHAKE stats (type/ave/delta) on step 1000
  1 0.9572 1.37429e-06 2916
  1 104.52 0.000150366
    1000    132.57515   -11320.192    -10542.87    29132.534    22406.916   -11320.192 
SHAKE stats (type/ave/delta) on step 1100
  1 0.9572 1.46105e-06 2916
  1 104.52 0.000158946
SHAKE stats (type/ave/delta) on step 1200
  1 0.9572 1.94391e-06 2916
  1 104.52 0.000267278
SHAKE stats (type/ave/delta) on step 1300
  1 0.9572 1.70916e-06 2916
  1 104.52 0.000236716
SHAKE stats (type/ave/delta) on step 1400
  1 0.9572 3.87727e-06 2916
  1 104.52 0.000300345
SHAKE stats (type/ave/delta) on step 1500
  1 0.9572 6.59183e-06 2916
  1 104.52 0.000285688
SHAKE stats (type/ave/delta) on step 1600
  1 0.9572 4.5023e-06 2916
  1 104.52 0.000330933
SHAKE stats (type/ave/delta) on step 1700
  1 0.9572 2.24973e-06 2916
  1 104.52 0.000247348
SHAKE stats (type/ave/delta) on step 1800
  1 0.9572 1.23299e-06 2916
  1 104.52 0.000137525
SHAKE stats (type/ave/delta) on step 1900
  1 0.9572 1.4381e-06 2916
  1 104.52 0.000226841
SHAKE stats (type/ave/delta) on step 2000
  1 0.9572 2.02099e-06 2916
  1 104.52 0.000258802
    2000    158.53564   -10893.242   -9963.7072    24680.735    22406.916   -10893.242 
SHAKE stats (type/ave/delta) on step 2100
  1 0.9572 2.49238e-06 2916
  1 104.52 0.000314886
SHAKE stats (type/ave/delta) on step 2200
  1 0.9572 2.55026e-06 2916
  1 104.52 0.000194118
SHAKE stats (type/ave/delta) on step 2300
  1 0.9572 2.27274e-06 2916
  1 104.52 0.000227503
SHAKE stats (type/ave/delta) on step 2400
  1 0.9572 1.14292e-06 2916
  1 104.52 0.000154805
SHAKE stats (type/ave/delta) on step 2500
  1 0.9572 1.71702e-06 2916
  1 104.52 0.000214752
SHAKE stats (type/ave/delta) on step 2600
  1 0.9572 2.14499e-06 2916
  1 104.52 0.000223287
SHAKE stats (type/ave/delta) on step 2700
  1 0.9572 1.78406e-06 2916
  1 104.52 0.000172112
SHAKE stats (type/ave/delta) on step 2800
  1 0.9572 2.53065e-06 2916
  1 104.52 0.000303418
SHAKE stats (type/ave/delta) on step 2900
  1 0.9572 2.87181e-06 2916
  1 104.52 0.000285201
SHAKE stats (type/ave/delta) on step 3000
  1 0.9572 1.75827e-06 2916
  1 104.52 0.000188872
    3000    139.48772   -10945.521   -10127.669    26974.018    22406.916   -10945.521 
SHAKE stats (type/ave/delta) on step 3100
  1 0.9572 1.25888e-06 2916
  1 104.52 0.000166705
SHAKE stats (type/ave/delta) on step 3200
  1 0.9572 2.01313e-06 2916
  1 104.52 0.000162919
SHAKE stats (type/ave/delta) on step 3300
  1 0.9572 1.9236e-06 2916
  1 104.52 0.000227501
SHAKE stats (type/ave/delta) on step 3400
  1 0.9572 4.52721e-06 2916
  1 104.52 0.000381498
SHAKE stats (type/ave/delta) on step 3500
  1 0.9572 4.13587e-06 2916
  1 104.52 0.00039795
SHAKE stats (type/ave/delta) on step 3600
  1 0.9572 2.63642e-06 2916
  1 104.52 0.000240182
SHAKE stats (type/ave/delta) on step 3700
  1 0.9572 1.25825e-06 2916
  1 104.52 0.000157199
SHAKE stats (type/ave/delta) on step 3800
  1 0.9572 1.58107e-06 2916
  1 104.52 0.000199848
SHAKE stats (type/ave/delta) on step 3900
  1 0.9572 1.30688e-06 2916
  1 104.52 0.000175799
SHAKE stats (type/ave/delta) on step 4000
  1 0.9572 2.05699e-06 2916
  1 104.52 0.00027128
    4000    156.04776   -10882.229   -9967.2816    28571.062    22406.916   -10882.229 
SHAKE stats (type/ave/delta) on step 4100
  1 0.9572 2.93213e-06 2916
  1 104.52 0.000211437
SHAKE stats (type/ave/delta) on step 4200
  1 0.9572 3.18494e-06 2916
  1 104.52 0.000305796
SHAKE stats (type/ave/delta) on step 4300
  1 0.9572 1.70024e-06 2916
  1 104.52 0.000170292
SHAKE stats (type/ave/delta) on step 4400
  1 0.9572 1.2826e-06 2916
  1 104.52 0.000168913
SHAKE stats (type/ave/delta) on step 4500
  1 0.9572 1.65277e-06 2916
  1 104.52 0.000174489
SHAKE stats (type/ave/delta) on step 4600
  1 0.9572 3.13295e-06 2916
  1 104.52 0.000207731
SHAKE stats (type/ave/delta) on step 4700
  1 0.9572 2.87093e-06 2916
  1 104.52 0.000238075
SHAKE stats (type/ave/delta) on step 4800
  1 0.9572 1.66113e-06 2916
  1 104.52 0.00019524
SHAKE stats (type/ave/delta) on step 4900
  1 0.9572 1.27697e-06 2916
  1 104.52 0.00015899
SHAKE stats (type/ave/delta) on step 5000
  1 0.9572 1.52394e-06 2916
  1 104.52 0.000181496
    5000     150.9888   -11001.556    -10116.27      26669.5    22406.916   -11001.556 
SHAKE stats (type/ave/delta) on step 5100
  1 0.9572 1.61728e-06 2916
  1 104.52 0.000182483
SHAKE stats (type/ave/delta) on step 5200
  1 0.9572 2.4569e-06 2916
  1 104.52 0.000258284
SHAKE stats (type/ave/delta) on step 5300
  1 0.9572 1.87631e-06 2916
  1 104.52 0.000240192
SHAKE stats (type/ave/delta) on step 5400
  1 0.9572 1.14716e-06 2916
  1 104.52 0.000140688
SHAKE stats (type/ave/delta) on step 5500
  1 0.9572 1.41091e-06 2916
  1 104.52 0.000190673
SHAKE stats (type/ave/delta) on step 5600
  1 0.9572 1.25746e-06 2916
  1 104.52 0.000162862
SHAKE stats (type/ave/delta) on step 5700
  1 0.9572 1.43878e-06 2916
  1 104.52 0.000169446
SHAKE stats (type/ave/delta) on step 5800
  1 0.9572 2.29554e-06 2916
  1 104.52 0.000218317
SHAKE stats (type/ave/delta) on step 5900
  1 0.9572 2.69696e-06 2916
  1 104.52 0.000293101
SHAKE stats (type/ave/delta) on step 6000
  1 0.9572 2.10178e-06 2916
  1 104.52 0.000201585
    6000    138.78546   -11046.989   -10233.254     24115.64    22406.916   -11046.989 
SHAKE stats (type/ave/delta) on step 6100
  1 0.9572 2.03277e-06 2916
  1 104.52 0.000247146
SHAKE stats (type/ave/delta) on step 6200
  1 0.9572 1.57777e-06 2916
  1 104.52 0.000186972
SHAKE stats (type/ave/delta) on step 6300
  1 0.9572 1.39741e-06 2916
  1 104.52 0.000209943
SHAKE stats (type/ave/delta) on step 6400
  1 0.9572 1.98449e-06 2916
  1 104.52 0.000167762
SHAKE stats (type/ave/delta) on step 6500
  1 0.9572 2.27627e-06 2916
  1 104.52 0.00022217
SHAKE stats (type/ave/delta) on step 6600
  1 0.9572 2.92508e-06 2916
  1 104.52 0.000281795
SHAKE stats (type/ave/delta) on step 6700
  1 0.9572 1.53077e-06 2916
  1 104.52 0.000171536
SHAKE stats (type/ave/delta) on step 6800
  1 0.9572 1.47058e-06 2916
  1 104.52 0.000161597
SHAKE stats (type/ave/delta) on step 6900
  1 0.9572 1.96626e-06 2916
  1 104.52 0.000242178
SHAKE stats (type/ave/delta) on step 7000
  1 0.9572 2.5124e-06 2916
  1 104.52 0.000239764
    7000    149.68328   -10853.364   -9975.7334    27827.342    22406.916   -10853.364 
SHAKE stats (type/ave/delta) on step 7100
  1 0.9572 2.43283e-06 2916
  1 104.52 0.000274719
SHAKE stats (type/ave/delta) on step 7200
  1 0.9572 4.55994e-06 2916
  1 104.52 0.00032423
SHAKE stats (type/ave/delta) on step 7300
  1 0.9572 3.13456e-06 2916
  1 104.52 0.00023867
SHAKE stats (type/ave/delta) on step 7400
  1 0.9572 1.66201e-06 2916
  1 104.52 0.000162591
SHAKE stats (type/ave/delta) on step 7500
  1 0.9572 1.5287e-06 2916
  1 104.52 0.000214678
SHAKE stats (type/ave/delta) on step 7600
  1 0.9572 2.32145e-06 2916
  1 104.52 0.000149901
SHAKE stats (type/ave/delta) on step 7700
  1 0.9572 1.37455e-06 2916
  1 104.52 0.000188961
SHAKE stats (type/ave/delta) on step 7800
  1 0.9572 3.33961e-06 2916
  1 104.52 0.000248254
SHAKE stats (type/ave/delta) on step 7900
  1 0.9572 3.09066e-06 2916
  1 104.52 0.000246061
SHAKE stats (type/ave/delta) on step 8000
  1 0.9572 2.13735e-06 2916
  1 104.52 0.000242466
    8000    138.90736   -11043.696   -10229.247    27156.277    22406.916   -11043.696 
SHAKE stats (type/ave/delta) on step 8100
  1 0.9572 1.66312e-06 2916
  1 104.52 0.000222542
SHAKE stats (type/ave/delta) on step 8200
  1 0.957201 2.84328e-06 2916
  1 104.52 0.000241694
SHAKE stats (type/ave/delta) on step 8300
  1 0.9572 1.80515e-06 2916
  1 104.52 0.000248933
SHAKE stats (type/ave/delta) on step 8400
  1 0.9572 2.52784e-06 2916
  1 104.52 0.000210611
SHAKE stats (type/ave/delta) on step 8500
  1 0.9572 3.00032e-06 2916
  1 104.52 0.000285571
SHAKE stats (type/ave/delta) on step 8600
  1 0.9572 1.94721e-06 2916
  1 104.52 0.000225877
SHAKE stats (type/ave/delta) on step 8700
  1 0.9572 1.40518e-06 2916
  1 104.52 0.000185833
SHAKE stats (type/ave/delta) on step 8800
  1 0.9572 1.76043e-06 2916
  1 104.52 0.000211706
SHAKE stats (type/ave/delta) on step 8900
  1 0.9572 1.19681e-06 2916
  1 104.52 0.00016524
SHAKE stats (type/ave/delta) on step 9000
  1 0.9572 1.99284e-06 2916
  1 104.52 0.000179884
    9000    157.06424   -11041.807     -10120.9      26071.9    22406.916   -11041.807 
SHAKE stats (type/ave/delta) on step 9100
  1 0.9572 4.83409e-06 2916
  1 104.52 0.000492765
SHAKE stats (type/ave/delta) on step 9200
  1 0.9572 3.2746e-06 2916
  1 104.52 0.000265824
SHAKE stats (type/ave/delta) on step 9300
  1 0.9572 1.73459e-06 2916
  1 104.52 0.000213843
SHAKE stats (type/ave/delta) on step 9400
  1 0.957201 3.71981e-06 2916
  1 104.52 0.000386242
SHAKE stats (type/ave/delta) on step 9500
  1 0.9572 2.97695e-06 2916
  1 104.52 0.000334338
SHAKE stats (type/ave/delta) on step 9600
  1 0.9572 3.8204e-06 2916
  1 104.52 0.00021126
SHAKE stats (type/ave/delta) on step 9700
  1 0.9572 3.95511e-06 2916
  1 104.52 0.000389645
SHAKE stats (type/ave/delta) on step 9800
  1 0.9572 2.50586e-06 2916
  1 104.52 0.00031208
SHAKE stats (type/ave/delta) on step 9900
  1 0.9572 1.67538e-06 2916
  1 104.52 0.000146975
SHAKE stats (type/ave/delta) on step 10000
  1 0.9572 2.17451e-06 2916
  1 104.52 0.000258167
   10000    144.44804   -11105.857   -10258.922    25845.126    22406.916   -11105.857 
SHAKE stats (type/ave/delta) on step 10100
  1 0.9572 1.581e-06 2916
  1 104.52 0.000157005
SHAKE stats (type/ave/delta) on step 10200
  1 0.9572 1.42395e-06 2916
  1 104.52 0.000138009
SHAKE stats (type/ave/delta) on step 10300
  1 0.9572 3.39237e-06 2916
  1 104.52 0.000353044
SHAKE stats (type/ave/delta) on step 10400
  1 0.9572 3.45292e-06 2916
  1 104.52 0.000262295
SHAKE stats (type/ave/delta) on step 10500
  1 0.9572 1.32435e-06 2916
  1 104.52 0.000193568
SHAKE stats (type/ave/delta) on step 10600
  1 0.957201 2.37291e-06 2916
  1 104.52 0.000246689
SHAKE stats (type/ave/delta) on step 10700
  1 0.957201 2.96797e-06 2916
  1 104.52 0.00034845
SHAKE stats (type/ave/delta) on step 10800
  1 0.9572 2.29768e-06 2916
  1 104.52 0.00017453
SHAKE stats (type/ave/delta) on step 10900
  1 0.9572 5.63326e-06 2916
  1 104.52 0.000475999
SHAKE stats (type/ave/delta) on step 11000
  1 0.9572 3.17197e-06 2916
  1 104.52 0.000299156
   11000    142.10747   -11093.003   -10259.791    26061.978    22406.916   -11093.003 
SHAKE stats (type/ave/delta) on step 11100
  1 0.9572 1.64223e-06 2916
  1 104.52 0.000225019
SHAKE stats (type/ave/delta) on step 11200
  1 0.957201 2.49726e-06 2916
  1 104.52 0.000294545
SHAKE stats (type/ave/delta) on step 11300
  1 0.957201 1.98254e-06 2916
  1 104.52 0.000256037
SHAKE stats (type/ave/delta) on step 11400
  1 0.9572 1.37402e-06 2916
  1 104.52 0.000138176
SHAKE stats (type/ave/delta) on step 11500
  1 0.9572 5.03537e-06 2916
  1 104.52 0.000367634
SHAKE stats (type/ave/delta) on step 11600
  1 0.9572 4.52081e-06 2916
  1 104.52 0.000404817
SHAKE stats (type/ave/delta) on step 11700
  1 0.9572 3.11738e-06 2916
  1 104.52 0.000270317
SHAKE stats (type/ave/delta) on step 11800
  1 0.9572 1.59352e-06 2916
  1 104.52 0.00019279
SHAKE stats (type/ave/delta) on step 11900
  1 0.9572 2.10972e-06 2916
  1 104.52 0.000256095
SHAKE stats (type/ave/delta) on step 12000
  1 0.9572 1.45157e-06 2916
  1 104.52 0.000177671
   12000    158.60654   -11041.795   -10111.844     25853.44    22406.916   -11041.795 
SHAKE stats (type/ave/delta) on step 12100
  1 0.9572 2.97928e-06 2916
  1 104.52 0.000233143
SHAKE stats (type/ave/delta) on step 12200
  1 0.9572 4.35756e-06 2916
  1 104.52 0.000497969
SHAKE stats (type/ave/delta) on step 12300
  1 0.9572 6.12567e-06 2916
  1 104.52 0.000442718
SHAKE stats (type/ave/delta) on step 12400
  1 0.9572 2.00071e-06 2916
  1 104.52 0.000185979
SHAKE stats (type/ave/delta) on step 12500
  1 0.9572 1.70305e-06 2916
  1 104.52 0.000208352
SHAKE stats (type/ave/delta) on step 12600
  1 0.9572 1.83408e-06 2916
  1 104.52 0.000196508
SHAKE stats (type/ave/delta) on step 12700
  1 0.9572 2.98424e-06 2916
  1 104.52 0.000181919
SHAKE stats (type/ave/delta) on step 12800
  1 0.9572 6.25827e-06 2916
  1 104.52 0.000331359
SHAKE stats (type/ave/delta) on step 12900
  1 0.9572 2.96803e-06 2916
  1 104.52 0.000306597
SHAKE stats (type/ave/delta) on step 13000
  1 0.9572 1.3999e-06 2916
  1 104.52 0.000158578
   13000    139.10693       -11027   -10211.381    27229.966    22406.916       -11027 
SHAKE stats (type/ave/delta) on step 13100
  1 0.9572 1.38899e-06 2916
  1 104.52 0.000177892
SHAKE stats (type/ave/delta) on step 13200
  1 0.9572 2.37537e-06 2916
  1 104.52 0.000214013
SHAKE stats (type/ave/delta) on step 13300
  1 0.9572 1.45796e-06 2916
  1 104.52 0.000183836
SHAKE stats (type/ave/delta) on step 13400
  1 0.9572 3.54771e-06 2916
  1 104.52 0.000219083
SHAKE stats (type/ave/delta) on step 13500
  1 0.9572 4.01296e-06 2916
  1 104.52 0.000326244
SHAKE stats (type/ave/delta) on step 13600
  1 0.9572 1.90311e-06 2916
  1 104.52 0.000221481
SHAKE stats (type/ave/delta) on step 13700
  1 0.9572 1.37563e-06 2916
  1 104.52 0.000194268
SHAKE stats (type/ave/delta) on step 13800
  1 0.9572 2.03863e-06 2916
  1 104.52 0.00026929
SHAKE stats (type/ave/delta) on step 13900
  1 0.9572 1.69647e-06 2916
  1 104.52 0.000138152
SHAKE stats (type/ave/delta) on step 14000
  1 0.9572 2.96079e-06 2916
  1 104.52 0.000229233
   14000    154.87127    -10914.29   -10006.241    28505.551    22406.916    -10914.29 
SHAKE stats (type/ave/delta) on step 14100
  1 0.9572 3.25929e-06 2916
  1 104.52 0.000303798
SHAKE stats (type/ave/delta) on step 14200
  1 0.9572 2.23804e-06 2916
  1 104.52 0.000256389
SHAKE stats (type/ave/delta) on step 14300
  1 0.9572 1.50434e-06 2916
  1 104.52 0.000157108
SHAKE stats (type/ave/delta) on step 14400
  1 0.9572 1.81537e-06 2916
  1 104.52 0.000233401
SHAKE stats (type/ave/delta) on step 14500
  1 0.9572 1.53483e-06 2916
  1 104.52 0.000157886
SHAKE stats (type/ave/delta) on step 14600
  1 0.9572 2.60957e-06 2916
  1 104.52 0.000231446
SHAKE stats (type/ave/delta) on step 14700
  1 0.9572 2.65583e-06 2916
  1 104.52 0.000224144
SHAKE stats (type/ave/delta) on step 14800
  1 0.9572 1.5256e-06 2916
  1 104.52 0.000162635
SHAKE stats (type/ave/delta) on step 14900
  1 0.9572 1.23072e-06 2916
  1 104.52 0.000162071
SHAKE stats (type/ave/delta) on step 15000
  1 0.9572 1.41584e-06 2916
  1 104.52 0.000159711
   15000    148.10302   -10989.447   -10121.081    26542.757    22406.916   -10989.447 
SHAKE stats (type/ave/delta) on step 15100
  1 0.9572 1.68219e-06 2916
  1 104.52 0.000174256
SHAKE stats (type/ave/delta) on step 15200
  1 0.9572 1.88708e-06 2916
  1 104.52 0.00017997
SHAKE stats (type/ave/delta) on step 15300
  1 0.9572 2.70226e-06 2916
  1 104.52 0.000245609
SHAKE stats (type/ave/delta) on step 15400
  1 0.9572 2.88446e-06 2916
  1 104.52 0.000238791
SHAKE stats (type/ave/delta) on step 15500
  1 0.9572 2.33374e-06 2916
  1 104.52 0.000201226
SHAKE stats (type/ave/delta) on step 15600
  1 0.9572 2.13689e-06 2916
  1 104.52 0.000184415
SHAKE stats (type/ave/delta) on step 15700
  1 0.9572 1.81508e-06 2916
  1 104.52 0.00018036
SHAKE stats (type/ave/delta) on step 15800
  1 0.9572 1.85372e-06 2916
  1 104.52 0.000240752
SHAKE stats (type/ave/delta) on step 15900
  1 0.9572 1.31486e-06 2916
  1 104.52 0.00015454
SHAKE stats (type/ave/delta) on step 16000
  1 0.9572 2.47737e-06 2916
  1 104.52 0.000212019
   16000     151.2506    -11046.53    -10159.71    25316.304    22406.916    -11046.53 
SHAKE stats (type/ave/delta) on step 16100
  1 0.9572 2.93933e-06 2916
  1 104.52 0.00028724
SHAKE stats (type/ave/delta) on step 16200
  1 0.9572 2.95455e-06 2916
  1 104.52 0.000226253
SHAKE stats (type/ave/delta) on step 16300
  1 0.9572 1.82776e-06 2916
  1 104.52 0.000207294
SHAKE stats (type/ave/delta) on step 16400
  1 0.9572 1.41331e-06 2916
  1 104.52 0.000204772
SHAKE stats (type/ave/delta) on step 16500
  1 0.9572 1.35109e-06 2916
  1 104.52 0.000191885
SHAKE stats (type/ave/delta) on step 16600
  1 0.9572 1.24795e-06 2916
  1 104.52 0.000174314
SHAKE stats (type/ave/delta) on step 16700
  1 0.9572 2.44374e-06 2916
  1 104.52 0.000189675
SHAKE stats (type/ave/delta) on step 16800
  1 0.9572 2.75972e-06 2916
  1 104.52 0.000295919
SHAKE stats (type/ave/delta) on step 16900
  1 0.9572 1.69448e-06 2916
  1 104.52 0.000210609
SHAKE stats (type/ave/delta) on step 17000
  1 0.9572 1.19097e-06 2916
  1 104.52 0.000149528
   17000    145.48767   -11002.456   -10149.425    26271.109    22406.916   -11002.456 
SHAKE stats (type/ave/delta) on step 17100
  1 0.9572 1.5816e-06 2916
  1 104.52 0.000230348
SHAKE stats (type/ave/delta) on step 17200
  1 0.9572 1.68917e-06 2916
  1 104.52 0.000194131
SHAKE stats (type/ave/delta) on step 17300
  1 0.9572 1.82886e-06 2916
  1 104.52 0.000172709
SHAKE stats (type/ave/delta) on step 17400
  1 0.9572 2.64009e-06 2916
  1 104.52 0.000194804
SHAKE stats (type/ave/delta) on step 17500
  1 0.9572 2.86185e-06 2916
  1 104.52 0.000199048
SHAKE stats (type/ave/delta) on step 17600
  1 0.9572 1.75545e-06 2916
  1 104.52 0.000202636
SHAKE stats (type/ave/delta) on step 17700
  1 0.9572 1.63877e-06 2916
  1 104.52 0.000181993
SHAKE stats (type/ave/delta) on step 17800
  1 0.9572 1.24417e-06 2916
  1 104.52 0.000158249
SHAKE stats (type/ave/delta) on step 17900
  1 0.9572 2.21589e-06 2916
  1 104.52 0.00021329
SHAKE stats (type/ave/delta) on step 18000
  1 0.9572 3.50473e-06 2916
  1 104.52 0.000333774
   18000    147.31692   -10944.004   -10080.248    28025.278    22406.916   -10944.004 
SHAKE stats (type/ave/delta) on step 18100
  1 0.9572 2.62676e-06 2916
  1 104.52 0.000247523
SHAKE stats (type/ave/delta) on step 18200
  1 0.9572 1.64477e-06 2916
  1 104.52 0.000171044
SHAKE stats (type/ave/delta) on step 18300
  1 0.9572 2.11499e-06 2916
  1 104.52 0.000219334
SHAKE stats (type/ave/delta) on step 18400
  1 0.9572 1.26136e-06 2916
  1 104.52 0.000148292
SHAKE stats (type/ave/delta) on step 18500
  1 0.9572 2.93041e-06 2916
  1 104.52 0.000260461
SHAKE stats (type/ave/delta) on step 18600
  1 0.9572 3.53467e-06 2916
  1 104.52 0.000280296
SHAKE stats (type/ave/delta) on step 18700
  1 0.9572 2.25984e-06 2916
  1 104.52 0.000228697
SHAKE stats (type/ave/delta) on step 18800
  1 0.9572 1.3401e-06 2916
  1 104.52 0.000151385
SHAKE stats (type/ave/delta) on step 18900
  1 0.9572 1.21482e-06 2916
  1 104.52 0.000169282
SHAKE stats (type/ave/delta) on step 19000
  1 0.9572 1.85507e-06 2916
  1 104.52 0.000228764
   19000    159.23891   -11058.099   -10124.441    28280.566    22406.916   -11058.099 
SHAKE stats (type/ave/delta) on step 19100
  1 0.9572 3.02037e-06 2916
  1 104.52 0.0002982
SHAKE stats (type/ave/delta) on step 19200
  1 0.9572 2.90485e-06 2916
  1 104.52 0.000217867
SHAKE stats (type/ave/delta) on step 19300
  1 0.9572 2.15692e-06 2916
  1 104.52 0.000172648
SHAKE stats (type/ave/delta) on step 19400
  1 0.9572 1.36579e-06 2916
  1 104.52 0.000142326
SHAKE stats (type/ave/delta) on step 19500
  1 0.9572 1.15011e-06 2916
  1 104.52 0.000140797
SHAKE stats (type/ave/delta) on step 19600
  1 0.9572 2.30139e-06 2916
  1 104.52 0.000288863
SHAKE stats (type/ave/delta) on step 19700
  1 0.9572 2.30397e-06 2916
  1 104.52 0.000302657
SHAKE stats (type/ave/delta) on step 19800
  1 0.9572 2.32148e-06 2916
  1 104.52 0.000260906
SHAKE stats (type/ave/delta) on step 19900
  1 0.9572 1.72549e-06 2916
  1 104.52 0.00020615
SHAKE stats (type/ave/delta) on step 20000
  1 0.9572 2.23431e-06 2916
  1 104.52 0.000292264
   20000    150.63189   -10914.726   -10031.533    29454.925    22406.916   -10914.726 
SHAKE stats (type/ave/delta) on step 20100
  1 0.9572 1.20162e-06 2916
  1 104.52 0.000150239
SHAKE stats (type/ave/delta) on step 20200
  1 0.9572 4.39185e-06 2916
  1 104.52 0.000330993
SHAKE stats (type/ave/delta) on step 20300
  1 0.9572 4.48979e-06 2916
  1 104.52 0.000407426
SHAKE stats (type/ave/delta) on step 20400
  1 0.9572 2.08648e-06 2916
  1 104.52 0.000203449
SHAKE stats (type/ave/delta) on step 20500
  1 0.9572 1.50159e-06 2916
  1 104.52 0.000281163
SHAKE stats (type/ave/delta) on step 20600
  1 0.9572 2.0447e-06 2916
  1 104.52 0.000227112
SHAKE stats (type/ave/delta) on step 20700
  1 0.9572 1.28939e-06 2916
  1 104.52 0.000153599
SHAKE stats (type/ave/delta) on step 20800
  1 0.9572 2.18741e-06 2916
  1 104.52 0.000192563
SHAKE stats (type/ave/delta) on step 20900
  1 0.9572 2.11599e-06 2916
  1 104.52 0.000250474
SHAKE stats (type/ave/delta) on step 21000
  1 0.9572 2.89196e-06 2916
  1 104.52 0.000371301
   21000    150.86852   -10946.022   -10061.442    28022.712    22406.916   -10946.022 
SHAKE stats (type/ave/delta) on step 21100
  1 0.9572 2.31392e-06 2916
  1 104.52 0.000220572
SHAKE stats (type/ave/delta) on step 21200
  1 0.9572 3.1533e-06 2916
  1 104.52 0.000237393
SHAKE stats (type/ave/delta) on step 21300
  1 0.9572 1.68176e-06 2916
  1 104.52 0.000216323
SHAKE stats (type/ave/delta) on step 21400
  1 0.9572 1.31285e-06 2916
  1 104.52 0.000136574
SHAKE stats (type/ave/delta) on step 21500
  1 0.9572 1.57486e-06 2916
  1 104.52 0.000186012
SHAKE stats (type/ave/delta) on step 21600
  1 0.9572 2.00446e-06 2916
  1 104.52 0.000236285
SHAKE stats (type/ave/delta) on step 21700
  1 0.9572 3.17557e-06 2916
  1 104.52 0.000204742
SHAKE stats (type/ave/delta) on step 21800
  1 0.9572 4.07159e-06 2916
  1 104.52 0.000221923
SHAKE stats (type/ave/delta) on step 21900
  1 0.9572 1.63382e-06 2916
  1 104.52 0.000176728
SHAKE stats (type/ave/delta) on step 22000
  1 0.9572 2.11305e-06 2916
  1 104.52 0.000224425
   22000    143.90582   -11026.219   -10182.463    27696.046    22406.916   -11026.219 
SHAKE stats (type/ave/delta) on step 22100
  1 0.9572 2.31541e-06 2916
  1 104.52 0.00015198
SHAKE stats (type/ave/delta) on step 22200
  1 0.9572 1.23609e-06 2916
  1 104.52 0.000191444
SHAKE stats (type/ave/delta) on step 22300
  1 0.9572 1.64748e-06 2916
  1 104.52 0.000176384
SHAKE stats (type/ave/delta) on step 22400
  1 0.9572 1.58074e-06 2916
  1 104.52 0.000173678
SHAKE stats (type/ave/delta) on step 22500
  1 0.9572 1.37356e-06 2916
  1 104.52 0.000147853
SHAKE stats (type/ave/delta) on step 22600
  1 0.9572 1.91234e-06 2916
  1 104.52 0.000215722
SHAKE stats (type/ave/delta) on step 22700
  1 0.9572 2.15975e-06 2916
  1 104.52 0.000200281
SHAKE stats (type/ave/delta) on step 22800
  1 0.9572 1.68967e-06 2916
  1 104.52 0.000199993
SHAKE stats (type/ave/delta) on step 22900
  1 0.9572 1.66355e-06 2916
  1 104.52 0.000176806
SHAKE stats (type/ave/delta) on step 23000
  1 0.9572 1.05068e-06 2916
  1 104.52 0.00013103
   23000    149.54172   -10984.117   -10107.316    26766.433    22406.916   -10984.117 
SHAKE stats (type/ave/delta) on step 23100
  1 0.9572 1.58403e-06 2916
  1 104.52 0.000204733
SHAKE stats (type/ave/delta) on step 23200
  1 0.9572 1.1759e-06 2916
  1 104.52 0.000132548
SHAKE stats (type/ave/delta) on step 23300
  1 0.9572 1.49844e-06 2916
  1 104.52 0.000159578
SHAKE stats (type/ave/delta) on step 23400
  1 0.9572 1.56612e-06 2916
  1 104.52 0.00017523
SHAKE stats (type/ave/delta) on step 23500
  1 0.9572 1.26363e-06 2916
  1 104.52 0.000123742
SHAKE stats (type/ave/delta) on step 23600
  1 0.9572 1.19509e-06 2916
  1 104.52 0.000151766
SHAKE stats (type/ave/delta) on step 23700
  1 0.9572 1.38718e-06 2916
  1 104.52 0.000156385
SHAKE stats (type/ave/delta) on step 23800
  1 0.9572 1.43968e-06 2916
  1 104.52 0.00018779
SHAKE stats (type/ave/delta) on step 23900
  1 0.9572 1.30678e-06 2916
  1 104.52 0.000162631
SHAKE stats (type/ave/delta) on step 24000
  1 0.9572 2.11276e-06 2916
  1 104.52 0.000158555
   24000    152.35114   -11013.656   -10120.383    25452.725    22406.916   -11013.656 
SHAKE stats (type/ave/delta) on step 24100
  1 0.9572 3.18805e-06 2916
  1 104.52 0.000211335
SHAKE stats (type/ave/delta) on step 24200
  1 0.9572 3.52455e-06 2916
  1 104.52 0.000291715
SHAKE stats (type/ave/delta) on step 24300
  1 0.9572 1.22003e-06 2916
  1 104.52 0.000173745
SHAKE stats (type/ave/delta) on step 24400
  1 0.9572 1.66484e-06 2916
  1 104.52 0.000201933
SHAKE stats (type/ave/delta) on step 24500
  1 0.9572 1.57877e-06 2916
  1 104.52 0.000137565
SHAKE stats (type/ave/delta) on step 24600
  1 0.9572 2.70757e-06 2916
  1 104.52 0.000253122
SHAKE stats (type/ave/delta) on step 24700
  1 0.9572 2.57897e-06 2916
  1 104.52 0.000282076
SHAKE stats (type/ave/delta) on step 24800
  1 0.9572 2.60985e-06 2916
  1 104.52 0.000208586
SHAKE stats (type/ave/delta) on step 24900
  1 0.9572 2.05169e-06 2916
  1 104.52 0.000194631
SHAKE stats (type/ave/delta) on step 25000
  1 0.9572 1.34038e-06 2916
  1 104.52 0.000141924
   25000    146.93894   -11068.771   -10207.231    26439.304    22406.916   -11068.771 
SHAKE stats (type/ave/delta) on step 25100
  1 0.9572 1.44404e-06 2916
  1 104.52 0.000173029
SHAKE stats (type/ave/delta) on step 25200
  1 0.9572 1.04438e-06 2916
  1 104.52 0.000114406
SHAKE stats (type/ave/delta) on step 25300
  1 0.9572 3.18589e-06 2916
  1 104.52 0.000257987
SHAKE stats (type/ave/delta) on step 25400
  1 0.9572 2.31094e-06 2916
  1 104.52 0.000247903
SHAKE stats (type/ave/delta) on step 25500
  1 0.9572 2.12041e-06 2916
  1 104.52 0.000247722
SHAKE stats (type/ave/delta) on step 25600
  1 0.9572 1.9106e-06 2916
  1 104.52 0.000173653
SHAKE stats (type/ave/delta) on step 25700
  1 0.9572 2.15645e-06 2916
  1 104.52 0.000178765
SHAKE stats (type/ave/delta) on step 25800
  1 0.9572 4.58226e-06 2916
  1 104.52 0.000267046
SHAKE stats (type/ave/delta) on step 25900
  1 0.9572 2.57432e-06 2916
  1 104.52 0.000243979
SHAKE stats (type/ave/delta) on step 26000
  1 0.9572 2.76211e-06 2916
  1 104.52 0.000287889
   26000    143.76775   -11010.859   -10167.912    27861.838    22406.916   -11010.859 
SHAKE stats (type/ave/delta) on step 26100
  1 0.9572 1.32946e-06 2916
  1 104.52 0.000172964
SHAKE stats (type/ave/delta) on step 26200
  1 0.9572 1.84232e-06 2916
  1 104.52 0.000187979
SHAKE stats (type/ave/delta) on step 26300
  1 0.9572 1.76002e-06 2916
  1 104.52 0.000185617
SHAKE stats (type/ave/delta) on step 26400
  1 0.9572 1.92346e-06 2916
  1 104.52 0.000203981
SHAKE stats (type/ave/delta) on step 26500
  1 0.9572 2.15094e-06 2916
  1 104.52 0.000173021
SHAKE stats (type/ave/delta) on step 26600
  1 0.9572 1.74646e-06 2916
  1 104.52 0.000188842
SHAKE stats (type/ave/delta) on step 26700
  1 0.9572 1.49196e-06 2916
  1 104.52 0.0001679
SHAKE stats (type/ave/delta) on step 26800
  1 0.9572 1.51456e-06 2916
  1 104.52 0.000181536
SHAKE stats (type/ave/delta) on step 26900
  1 0.9572 1.29311e-06 2916
  1 104.52 0.000140019
SHAKE stats (type/ave/delta) on step 27000
  1 0.9572 1.65606e-06 2916
  1 104.52 0.000174744
   27000    144.99014   -11010.217   -10160.103    26427.231    22406.916   -11010.217 
SHAKE stats (type/ave/delta) on step 27100
  1 0.9572 1.4064e-06 2916
  1 104.52 0.000182876
SHAKE stats (type/ave/delta) on step 27200
  1 0.9572 1.78371e-06 2916
  1 104.52 0.000175616
SHAKE stats (type/ave/delta) on step 27300
  1 0.9572 5.95195e-06 2916
  1 104.52 0.000265236
SHAKE stats (type/ave/delta) on step 27400
  1 0.9572 3.10453e-06 2916
  1 104.52 0.000254783
SHAKE stats (type/ave/delta) on step 27500
  1 0.9572 2.02373e-06 2916
  1 104.52 0.000241332
SHAKE stats (type/ave/delta) on step 27600
  1 0.9572 1.58084e-06 2916
  1 104.52 0.000192653
SHAKE stats (type/ave/delta) on step 27700
  1 0.9572 1.11043e-06 2916
  1 104.52 0.000149894
SHAKE stats (type/ave/delta) on step 27800
  1 0.9572 1.58198e-06 2916
  1 104.52 0.000196233
SHAKE stats (type/ave/delta) on step 27900
  1 0.9572 2.43524e-06 2916
  1 104.52 0.000201594
SHAKE stats (type/ave/delta) on step 28000
  1 0.9572 3.61865e-06 2916
  1 104.52 0.00028489
   28000    149.58753   -11089.996   -10212.927    24323.412    22406.916   -11089.996 
SHAKE stats (type/ave/delta) on step 28100
  1 0.9572 1.80794e-06 2916
  1 104.52 0.000163372
SHAKE stats (type/ave/delta) on step 28200
  1 0.9572 1.6822e-06 2916
  1 104.52 0.000211736
SHAKE stats (type/ave/delta) on step 28300
  1 0.9572 1.54415e-06 2916
  1 104.52 0.000162144
SHAKE stats (type/ave/delta) on step 28400
  1 0.9572 1.59946e-06 2916
  1 104.52 0.00015311
SHAKE stats (type/ave/delta) on step 28500
  1 0.9572 1.69012e-06 2916
  1 104.52 0.000168333
SHAKE stats (type/ave/delta) on step 28600
  1 0.9572 1.66122e-06 2916
  1 104.52 0.000186269
SHAKE stats (type/ave/delta) on step 28700
  1 0.9572 1.80438e-06 2916
  1 104.52 0.000215493
SHAKE stats (type/ave/delta) on step 28800
  1 0.9572 2.88766e-06 2916
  1 104.52 0.000212304
SHAKE stats (type/ave/delta) on step 28900
  1 0.9572 3.40108e-06 2916
  1 104.52 0.0001776
SHAKE stats (type/ave/delta) on step 29000
  1 0.9572 1.70682e-06 2916
  1 104.52 0.000193004
   29000    138.01954   -10966.571   -10157.328    27491.504    22406.916   -10966.571 
SHAKE stats (type/ave/delta) on step 29100
  1 0.9572 1.36667e-06 2916
  1 104.52 0.000201097
SHAKE stats (type/ave/delta) on step 29200
  1 0.9572 2.32232e-06 2916
  1 104.52 0.00019215
SHAKE stats (type/ave/delta) on step 29300
  1 0.9572 1.60656e-06 2916
  1 104.52 0.000199419
SHAKE stats (type/ave/delta) on step 29400
  1 0.9572 2.60672e-06 2916
  1 104.52 0.000256986
SHAKE stats (type/ave/delta) on step 29500
  1 0.9572 2.67353e-06 2916
  1 104.52 0.000272382
SHAKE stats (type/ave/delta) on step 29600
  1 0.9572 2.44326e-06 2916
  1 104.52 0.00022162
SHAKE stats (type/ave/delta) on step 29700
  1 0.9572 1.43496e-06 2916
  1 104.52 0.000179263
SHAKE stats (type/ave/delta) on step 29800
  1 0.9572 1.02331e-06 2916
  1 104.52 0.000124357
SHAKE stats (type/ave/delta) on step 29900
  1 0.9572 1.31577e-06 2916
  1 104.52 0.000183595
SHAKE stats (type/ave/delta) on step 30000
  1 0.9572 1.3312e-06 2916
  1 104.52 0.000166806
   30000    150.13308   -10900.993   -10020.725     28349.29    22406.916   -10900.993 
SHAKE stats (type/ave/delta) on step 30100
  1 0.9572 2.58192e-06 2916
  1 104.52 0.000221647
SHAKE stats (type/ave/delta) on step 30200
  1 0.9572 2.59906e-06 2916
  1 104.52 0.000229459
SHAKE stats (type/ave/delta) on step 30300
  1 0.9572 2.1541e-06 2916
  1 104.52 0.000185152
SHAKE stats (type/ave/delta) on step 30400
  1 0.9572 1.92112e-06 2916
  1 104.52 0.000211257
SHAKE stats (type/ave/delta) on step 30500
  1 0.9572 1.43313e-06 2916
  1 104.52 0.000199071
SHAKE stats (type/ave/delta) on step 30600
  1 0.9572 1.35924e-06 2916
  1 104.52 0.000157674
SHAKE stats (type/ave/delta) on step 30700
  1 0.9572 1.82458e-06 2916
  1 104.52 0.000225211
SHAKE stats (type/ave/delta) on step 30800
  1 0.9572 1.8663e-06 2916
  1 104.52 0.00017787
SHAKE stats (type/ave/delta) on step 30900
  1 0.9572 2.47242e-06 2916
  1 104.52 0.000234914
SHAKE stats (type/ave/delta) on step 31000
  1 0.9572 2.65321e-06 2916
  1 104.52 0.000262379
   31000    141.50408   -10994.569   -10164.895    27571.975    22406.916   -10994.569 
SHAKE stats (type/ave/delta) on step 31100
  1 0.9572 1.45716e-06 2916
  1 104.52 0.000183645
SHAKE stats (type/ave/delta) on step 31200
  1 0.9572 1.51561e-06 2916
  1 104.52 0.000215258
SHAKE stats (type/ave/delta) on step 31300
  1 0.9572 1.7305e-06 2916
  1 104.52 0.000183233
SHAKE stats (type/ave/delta) on step 31400
  1 0.9572 1.88793e-06 2916
  1 104.52 0.000185327
SHAKE stats (type/ave/delta) on step 31500
  1 0.9572 2.50131e-06 2916
  1 104.52 0.000374483
SHAKE stats (type/ave/delta) on step 31600
  1 0.9572 3.45627e-06 2916
  1 104.52 0.000258612
SHAKE stats (type/ave/delta) on step 31700
  1 0.9572 2.15669e-06 2916
  1 104.52 0.000191466
SHAKE stats (type/ave/delta) on step 31800
  1 0.9572 1.15828e-06 2916
  1 104.52 0.000150447
SHAKE stats (type/ave/delta) on step 31900
  1 0.9572 1.52478e-06 2916
  1 104.52 0.000174667
SHAKE stats (type/ave/delta) on step 32000
  1 0.9572 1.63982e-06 2916
  1 104.52 0.000179468
   32000    145.61792   -10947.455    -10093.66     26972.36    22406.916   -10947.455 
SHAKE stats (type/ave/delta) on step 32100
  1 0.9572 1.38046e-06 2916
  1 104.52 0.000151451
SHAKE stats (type/ave/delta) on step 32200
  1 0.9572 1.35414e-06 2916
  1 104.52 0.000182816
SHAKE stats (type/ave/delta) on step 32300
  1 0.9572 1.95716e-06 2916
  1 104.52 0.000179258
SHAKE stats (type/ave/delta) on step 32400
  1 0.9572 1.27682e-06 2916
  1 104.52 0.000144548
SHAKE stats (type/ave/delta) on step 32500
  1 0.9572 1.33037e-06 2916
  1 104.52 0.000180869
SHAKE stats (type/ave/delta) on step 32600
  1 0.9572 1.32144e-06 2916
  1 104.52 0.000182575
SHAKE stats (type/ave/delta) on step 32700
  1 0.9572 1.35448e-06 2916
  1 104.52 0.000172628
SHAKE stats (type/ave/delta) on step 32800
  1 0.9572 1.70707e-06 2916
  1 104.52 0.000171677
SHAKE stats (type/ave/delta) on step 32900
  1 0.9572 2.36812e-06 2916
  1 104.52 0.000223179
SHAKE stats (type/ave/delta) on step 33000
  1 0.9572 1.48873e-06 2916
  1 104.52 0.000171953
   33000     145.2951   -10949.467   -10097.565    27582.715    22406.916   -10949.467 
SHAKE stats (type/ave/delta) on step 33100
  1 0.9572 1.65646e-06 2916
  1 104.52 0.000181262
SHAKE stats (type/ave/delta) on step 33200
  1 0.9572 1.43103e-06 2916
  1 104.52 0.000158088
SHAKE stats (type/ave/delta) on step 33300
  1 0.9572 1.40651e-06 2916
  1 104.52 0.000142783
SHAKE stats (type/ave/delta) on step 33400
  1 0.9572 1.74001e-06 2916
  1 104.52 0.000204152
SHAKE stats (type/ave/delta) on step 33500
  1 0.9572 2.38236e-06 2916
  1 104.52 0.00023412
SHAKE stats (type/ave/delta) on step 33600
  1 0.9572 1.61233e-06 2916
  1 104.52 0.000194826
SHAKE stats (type/ave/delta) on step 33700
  1 0.9572 1.44828e-06 2916
  1 104.52 0.00020379
SHAKE stats (type/ave/delta) on step 33800
  1 0.9572 1.43455e-06 2916
  1 104.52 0.000206941
SHAKE stats (type/ave/delta) on step 33900
  1 0.9572 1.27873e-06 2916
  1 104.52 0.000173613
SHAKE stats (type/ave/delta) on step 34000
  1 0.9572 1.47903e-06 2916
  1 104.52 0.000152521
   34000    145.35791   -10952.581   -10100.311    27992.692    22406.916   -10952.581 
SHAKE stats (type/ave/delta) on step 34100
  1 0.9572 1.67656e-06 2916
  1 104.52 0.000154955
SHAKE stats (type/ave/delta) on step 34200
  1 0.9572 1.54988e-06 2916
  1 104.52 0.000180228
SHAKE stats (type/ave/delta) on step 34300
  1 0.9572 1.5133e-06 2916
  1 104.52 0.000219872
SHAKE stats (type/ave/delta) on step 34400
  1 0.9572 2.09276e-06 2916
  1 104.52 0.000193662
SHAKE stats (type/ave/delta) on step 34500
  1 0.9572 1.62202e-06 2916
  1 104.52 0.000198136
SHAKE stats (type/ave/delta) on step 34600
  1 0.9572 1.71176e-06 2916
  1 104.52 0.000188573
SHAKE stats (type/ave/delta) on step 34700
  1 0.9572 1.88579e-06 2916
  1 104.52 0.000195454
SHAKE stats (type/ave/delta) on step 34800
  1 0.9572 1.68201e-06 2916
  1 104.52 0.00019224
SHAKE stats (type/ave/delta) on step 34900
  1 0.9572 1.29923e-06 2916
  1 104.52 0.000168811
SHAKE stats (type/ave/delta) on step 35000
  1 0.9572 1.5733e-06 2916
  1 104.52 0.000182351
   35000    143.16176   -10951.835   -10112.441    28772.519    22406.916   -10951.835 
SHAKE stats (type/ave/delta) on step 35100
  1 0.9572 1.51868e-06 2916
  1 104.52 0.000185767
SHAKE stats (type/ave/delta) on step 35200
  1 0.9572 1.29095e-06 2916
  1 104.52 0.000135226
SHAKE stats (type/ave/delta) on step 35300
  1 0.9572 1.63312e-06 2916
  1 104.52 0.000184414
SHAKE stats (type/ave/delta) on step 35400
  1 0.9572 2.13096e-06 2916
  1 104.52 0.000171481
SHAKE stats (type/ave/delta) on step 35500
  1 0.9572 1.55024e-06 2916
  1 104.52 0.000165559
SHAKE stats (type/ave/delta) on step 35600
  1 0.9572 1.70094e-06 2916
  1 104.52 0.00017869
SHAKE stats (type/ave/delta) on step 35700
  1 0.9572 1.68439e-06 2916
  1 104.52 0.000187648
SHAKE stats (type/ave/delta) on step 35800
  1 0.9572 1.6503e-06 2916
  1 104.52 0.000166795
SHAKE stats (type/ave/delta) on step 35900
  1 0.9572 1.83991e-06 2916
  1 104.52 0.000159778
SHAKE stats (type/ave/delta) on step 36000
  1 0.9572 2.33453e-06 2916
  1 104.52 0.000215136
   36000    143.72971   -10934.185   -10091.461    28702.224    22406.916   -10934.185 
SHAKE stats (type/ave/delta) on step 36100
  1 0.9572 2.06582e-06 2916
  1 104.52 0.000220713
SHAKE stats (type/ave/delta) on step 36200
  1 0.9572 1.3848e-06 2916
  1 104.52 0.000151815
SHAKE stats (type/ave/delta) on step 36300
  1 0.9572 1.49133e-06 2916
  1 104.52 0.000174041
SHAKE stats (type/ave/delta) on step 36400
  1 0.9572 1.62703e-06 2916
  1 104.52 0.000195909
SHAKE stats (type/ave/delta) on step 36500
  1 0.9572 1.67272e-06 2916
  1 104.52 0.000187312
SHAKE stats (type/ave/delta) on step 36600
  1 0.9572 1.44594e-06 2916
  1 104.52 0.000155746
SHAKE stats (type/ave/delta) on step 36700
  1 0.9572 2.30293e-06 2916
  1 104.52 0.000165393
SHAKE stats (type/ave/delta) on step 36800
  1 0.9572 2.12171e-06 2916
  1 104.52 0.000220396
SHAKE stats (type/ave/delta) on step 36900
  1 0.9572 1.72665e-06 2916
  1 104.52 0.000160964
SHAKE stats (type/ave/delta) on step 37000
  1 0.9572 1.34317e-06 2916
  1 104.52 0.000189457
   37000    147.78643   -11085.886   -10219.377    27702.001    22406.916   -11085.886 
SHAKE stats (type/ave/delta) on step 37100
  1 0.9572 1.42562e-06 2916
  1 104.52 0.000189341
SHAKE stats (type/ave/delta) on step 37200
  1 0.9572 1.23349e-06 2916
  1 104.52 0.000148054
SHAKE stats (type/ave/delta) on step 37300
  1 0.9572 1.48544e-06 2916
  1 104.52 0.000140755
SHAKE stats (type/ave/delta) on step 37400
  1 0.9572 2.5651e-06 2916
  1 104.52 0.00019985
SHAKE stats (type/ave/delta) on step 37500
  1 0.9572 2.38834e-06 2916
  1 104.52 0.00020101
SHAKE stats (type/ave/delta) on step 37600
  1 0.9572 1.88114e-06 2916
  1 104.52 0.00020441
SHAKE stats (type/ave/delta) on step 37700
  1 0.9572 1.49412e-06 2916
  1 104.52 0.000189749
SHAKE stats (type/ave/delta) on step 37800
  1 0.9572 1.52509e-06 2916
  1 104.52 0.000136922
SHAKE stats (type/ave/delta) on step 37900
  1 0.9572 2.40844e-06 2916
  1 104.52 0.000251436
SHAKE stats (type/ave/delta) on step 38000
  1 0.9572 1.38701e-06 2916
  1 104.52 0.00015838
   38000    144.76415   -10987.821   -10139.032    27744.635    22406.916   -10987.821 
SHAKE stats (type/ave/delta) on step 38100
  1 0.9572 1.98169e-06 2916
  1 104.52 0.000247884
SHAKE stats (type/ave/delta) on step 38200
  1 0.9572 1.85598e-06 2916
  1 104.52 0.000202269
SHAKE stats (type/ave/delta) on step 38300
  1 0.9572 1.78209e-06 2916
  1 104.52 0.000185702
SHAKE stats (type/ave/delta) on step 38400
  1 0.9572 1.46542e-06 2916
  1 104.52 0.000150126
SHAKE stats (type/ave/delta) on step 38500
  1 0.9572 1.46968e-06 2916
  1 104.52 0.000171016
SHAKE stats (type/ave/delta) on step 38600
  1 0.9572 1.39212e-06 2916
  1 104.52 0.000189655
SHAKE stats (type/ave/delta) on step 38700
  1 0.9572 1.65216e-06 2916
  1 104.52 0.000212016
SHAKE stats (type/ave/delta) on step 38800
  1 0.9572 2.21151e-06 2916
  1 104.52 0.000220345
SHAKE stats (type/ave/delta) on step 38900
  1 0.9572 1.79779e-06 2916
  1 104.52 0.000192751
SHAKE stats (type/ave/delta) on step 39000
  1 0.9572 2.81351e-06 2916
  1 104.52 0.00026341
   39000    151.65284   -10927.811   -10038.632    28323.659    22406.916   -10927.811 
SHAKE stats (type/ave/delta) on step 39100
  1 0.9572 3.47923e-06 2916
  1 104.52 0.000245736
SHAKE stats (type/ave/delta) on step 39200
  1 0.9572 1.33829e-06 2916
  1 104.52 0.000143964
SHAKE stats (type/ave/delta) on step 39300
  1 0.9572 1.54088e-06 2916
  1 104.52 0.000206054
SHAKE stats (type/ave/delta) on step 39400
  1 0.9572 1.15179e-06 2916
  1 104.52 0.000136908
SHAKE stats (type/ave/delta) on step 39500
  1 0.9572 1.54021e-06 2916
  1 104.52 0.000171383
SHAKE stats (type/ave/delta) on step 39600
  1 0.9572 2.76179e-06 2916
  1 104.52 0.000315382
SHAKE stats (type/ave/delta) on step 39700
  1 0.9572 1.3073e-06 2916
  1 104.52 0.000156069
SHAKE stats (type/ave/delta) on step 39800
  1 0.9572 1.66392e-06 2916
  1 104.52 0.000235445
SHAKE stats (type/ave/delta) on step 39900
  1 0.9572 1.82409e-06 2916
  1 104.52 0.000230516
SHAKE stats (type/ave/delta) on step 40000
  1 0.9572 1.33545e-06 2916
  1 104.52 0.000185293
   40000    155.75228   -10871.766   -9958.5506    28321.243    22406.916   -10871.766 
SHAKE stats (type/ave/delta) on step 40100
  1 0.9572 2.36663e-06 2916
  1 104.52 0.000192995
SHAKE stats (type/ave/delta) on step 40200
  1 0.9572 2.74703e-06 2916
  1 104.52 0.000261402
SHAKE stats (type/ave/delta) on step 40300
  1 0.9572 1.89824e-06 2916
  1 104.52 0.000164483
SHAKE stats (type/ave/delta) on step 40400
  1 0.9572 1.37473e-06 2916
  1 104.52 0.000204393
SHAKE stats (type/ave/delta) on step 40500
  1 0.9572 1.59329e-06 2916
  1 104.52 0.00021538
SHAKE stats (type/ave/delta) on step 40600
  1 0.9572 1.40905e-06 2916
  1 104.52 0.000162121
SHAKE stats (type/ave/delta) on step 40700
  1 0.9572 2.22938e-06 2916
  1 104.52 0.000198831
SHAKE stats (type/ave/delta) on step 40800
  1 0.9572 1.78419e-06 2916
  1 104.52 0.000216345
SHAKE stats (type/ave/delta) on step 40900
  1 0.9572 1.76223e-06 2916
  1 104.52 0.000163859
SHAKE stats (type/ave/delta) on step 41000
  1 0.9572 1.23348e-06 2916
  1 104.52 0.000136652
   41000    140.31466    -10961.76   -10139.059    27526.433    22406.916    -10961.76 
SHAKE stats (type/ave/delta) on step 41100
  1 0.9572 1.265e-06 2916
  1 104.52 0.000162565
SHAKE stats (type/ave/delta) on step 41200
  1 0.9572 1.20227e-06 2916
  1 104.52 0.000146521
SHAKE stats (type/ave/delta) on step 41300
  1 0.9572 1.5861e-06 2916
  1 104.52 0.000181919
SHAKE stats (type/ave/delta) on step 41400
  1 0.9572 2.16793e-06 2916
  1 104.52 0.0002719
SHAKE stats (type/ave/delta) on step 41500
  1 0.9572 1.43225e-06 2916
  1 104.52 0.000173074
SHAKE stats (type/ave/delta) on step 41600
  1 0.9572 1.64715e-06 2916
  1 104.52 0.000174205
SHAKE stats (type/ave/delta) on step 41700
  1 0.9572 1.24384e-06 2916
  1 104.52 0.000160958
SHAKE stats (type/ave/delta) on step 41800
  1 0.9572 1.872e-06 2916
  1 104.52 0.00021036
SHAKE stats (type/ave/delta) on step 41900
  1 0.9572 1.6603e-06 2916
  1 104.52 0.000187324
SHAKE stats (type/ave/delta) on step 42000
  1 0.9572 2.30672e-06 2916
  1 104.52 0.000199177
   42000    149.97109   -10957.895   -10078.577    27551.053    22406.916   -10957.895 
SHAKE stats (type/ave/delta) on step 42100
  1 0.9572 1.88813e-06 2916
  1 104.52 0.000228031
SHAKE stats (type/ave/delta) on step 42200
  1 0.9572 2.14825e-06 2916
  1 104.52 0.000280988
SHAKE stats (type/ave/delta) on step 42300
  1 0.9572 1.36818e-06 2916
  1 104.52 0.000141983
SHAKE stats (type/ave/delta) on step 42400
  1 0.9572 1.70428e-06 2916
  1 104.52 0.000218987
SHAKE stats (type/ave/delta) on step 42500
  1 0.9572 1.26471e-06 2916
  1 104.52 0.000144899
SHAKE stats (type/ave/delta) on step 42600
  1 0.9572 1.77382e-06 2916
  1 104.52 0.000202905
SHAKE stats (type/ave/delta) on step 42700
  1 0.9572 2.49879e-06 2916
  1 104.52 0.000236523
SHAKE stats (type/ave/delta) on step 42800
  1 0.9572 2.47464e-06 2916
  1 104.52 0.00022361
SHAKE stats (type/ave/delta) on step 42900
  1 0.9572 2.05629e-06 2916
  1 104.52 0.000220969
SHAKE stats (type/ave/delta) on step 43000
  1 0.9572 1.43905e-06 2916
  1 104.52 0.000133412
   43000    145.37398   -11135.962   -10283.597    25775.101    22406.916   -11135.962 
SHAKE stats (type/ave/delta) on step 43100
  1 0.9572 2.24592e-06 2916
  1 104.52 0.000159136
SHAKE stats (type/ave/delta) on step 43200
  1 0.9572 1.15665e-06 2916
  1 104.52 0.000142074
SHAKE stats (type/ave/delta) on step 43300
  1 0.9572 1.97511e-06 2916
  1 104.52 0.000180621
SHAKE stats (type/ave/delta) on step 43400
  1 0.9572 2.47953e-06 2916
  1 104.52 0.000307991
SHAKE stats (type/ave/delta) on step 43500
  1 0.9572 2.7179e-06 2916
  1 104.52 0.00017818
SHAKE stats (type/ave/delta) on step 43600
  1 0.9572 1.67556e-06 2916
  1 104.52 0.000189343
SHAKE stats (type/ave/delta) on step 43700
  1 0.957201 2.59347e-06 2916
  1 104.52 0.000339992
SHAKE stats (type/ave/delta) on step 43800
  1 0.9572 1.27197e-06 2916
  1 104.52 0.000172156
SHAKE stats (type/ave/delta) on step 43900
  1 0.9572 2.50333e-06 2916
  1 104.52 0.000189026
SHAKE stats (type/ave/delta) on step 44000
  1 0.9572 3.07911e-06 2916
  1 104.52 0.000267836
   44000    148.04166   -10945.902   -10077.896     27679.91    22406.916   -10945.902 
SHAKE stats (type/ave/delta) on step 44100
  1 0.9572 2.44196e-06 2916
  1 104.52 0.000250999
SHAKE stats (type/ave/delta) on step 44200
  1 0.9572 1.63029e-06 2916
  1 104.52 0.000237232
SHAKE stats (type/ave/delta) on step 44300
  1 0.9572 2.11976e-06 2916
  1 104.52 0.000240138
SHAKE stats (type/ave/delta) on step 44400
  1 0.9572 2.02565e-06 2916
  1 104.52 0.000306521
SHAKE stats (type/ave/delta) on step 44500
  1 0.9572 2.04426e-06 2916
  1 104.52 0.000215522
SHAKE stats (type/ave/delta) on step 44600
  1 0.9572 3.03941e-06 2916
  1 104.52 0.000324108
SHAKE stats (type/ave/delta) on step 44700
  1 0.9572 2.20616e-06 2916
  1 104.52 0.000214243
SHAKE stats (type/ave/delta) on step 44800
  1 0.9572 1.36412e-06 2916
  1 104.52 0.000153755
SHAKE stats (type/ave/delta) on step 44900
  1 0.9572 1.80981e-06 2916
  1 104.52 0.000229298
SHAKE stats (type/ave/delta) on step 45000
  1 0.9572 1.69673e-06 2916
  1 104.52 0.000229598
   45000    148.32152   -10908.126   -10038.479     28317.82    22406.916   -10908.126 
SHAKE stats (type/ave/delta) on step 45100
  1 0.9572 1.45546e-06 2916
  1 104.52 0.000192767
SHAKE stats (type/ave/delta) on step 45200
  1 0.9572 1.84727e-06 2916
  1 104.52 0.000198826
SHAKE stats (type/ave/delta) on step 45300
  1 0.9572 2.49449e-06 2916
  1 104.52 0.000248796
SHAKE stats (type/ave/delta) on step 45400
  1 0.9572 1.57364e-06 2916
  1 104.52 0.000198527
SHAKE stats (type/ave/delta) on step 45500
  1 0.9572 1.58274e-06 2916
  1 104.52 0.000199326
SHAKE stats (type/ave/delta) on step 45600
  1 0.9572 1.61088e-06 2916
  1 104.52 0.000251263
SHAKE stats (type/ave/delta) on step 45700
  1 0.9572 1.2744e-06 2916
  1 104.52 0.000172839
SHAKE stats (type/ave/delta) on step 45800
  1 0.9572 1.77551e-06 2916
  1 104.52 0.000157294
SHAKE stats (type/ave/delta) on step 45900
  1 0.9572 2.40937e-06 2916
  1 104.52 0.000229058
SHAKE stats (type/ave/delta) on step 46000
  1 0.9572 1.30798e-06 2916
  1 104.52 0.000165564
   46000    148.05687   -10924.078   -10055.983    28846.015    22406.916   -10924.078 
SHAKE stats (type/ave/delta) on step 46100
  1 0.9572 1.46192e-06 2916
  1 104.52 0.000166505
SHAKE stats (type/ave/delta) on step 46200
  1 0.9572 2.27989e-06 2916
  1 104.52 0.000201759
SHAKE stats (type/ave/delta) on step 46300
  1 0.9572 1.21535e-06 2916
  1 104.52 0.000167568
SHAKE stats (type/ave/delta) on step 46400
  1 0.9572 2.04385e-06 2916
  1 104.52 0.000207638
SHAKE stats (type/ave/delta) on step 46500
  1 0.9572 2.32934e-06 2916
  1 104.52 0.000238339
SHAKE stats (type/ave/delta) on step 46600
  1 0.9572 1.4133e-06 2916
  1 104.52 0.000169603
SHAKE stats (type/ave/delta) on step 46700
  1 0.9572 1.33314e-06 2916
  1 104.52 0.000128834
SHAKE stats (type/ave/delta) on step 46800
  1 0.9572 1.91311e-06 2916
  1 104.52 0.000172022
SHAKE stats (type/ave/delta) on step 46900
  1 0.9572 1.3959e-06 2916
  1 104.52 0.000140628
SHAKE stats (type/ave/delta) on step 47000
  1 0.9572 1.88439e-06 2916
  1 104.52 0.000191061
   47000    150.56896   -10946.246   -10063.422    27720.905    22406.916   -10946.246 
SHAKE stats (type/ave/delta) on step 47100
  1 0.9572 1.79365e-06 2916
  1 104.52 0.00024183
SHAKE stats (type/ave/delta) on step 47200
  1 0.9572 2.14883e-06 2916
  1 104.52 0.00022487
SHAKE stats (type/ave/delta) on step 47300
  1 0.9572 1.9208e-06 2916
  1 104.52 0.000175996
SHAKE stats (type/ave/delta) on step 47400
  1 0.9572 1.3772e-06 2916
  1 104.52 0.000148368
SHAKE stats (type/ave/delta) on step 47500
  1 0.9572 2.04431e-06 2916
  1 104.52 0.0001788
SHAKE stats (type/ave/delta) on step 47600
  1 0.9572 1.73178e-06 2916
  1 104.52 0.000207961
SHAKE stats (type/ave/delta) on step 47700
  1 0.9572 1.51121e-06 2916
  1 104.52 0.000145405
SHAKE stats (type/ave/delta) on step 47800
  1 0.9572 1.58409e-06 2916
  1 104.52 0.000177315
SHAKE stats (type/ave/delta) on step 47900
  1 0.9572 1.96272e-06 2916
  1 104.52 0.000211463
SHAKE stats (type/ave/delta) on step 48000
  1 0.9572 2.10462e-06 2916
  1 104.52 0.00020321
   48000    144.86616     -11046.9   -10197.513    26835.948    22406.916     -11046.9 
SHAKE stats (type/ave/delta) on step 48100
  1 0.9572 1.76371e-06 2916
  1 104.52 0.000192724
SHAKE stats (type/ave/delta) on step 48200
  1 0.9572 2.60709e-06 2916
  1 104.52 0.000275424
SHAKE stats (type/ave/delta) on step 48300
  1 0.9572 1.31875e-06 2916
  1 104.52 0.000175564
SHAKE stats (type/ave/delta) on step 48400
  1 0.9572 1.54325e-06 2916
  1 104.52 0.000179652
SHAKE stats (type/ave/delta) on step 48500
  1 0.9572 2.68388e-06 2916
  1 104.52 0.000222018
SHAKE stats (type/ave/delta) on step 48600
  1 0.9572 2.00632e-06 2916
  1 104.52 0.000210975
SHAKE stats (type/ave/delta) on step 48700
  1 0.9572 1.73758e-06 2916
  1 104.52 0.000160947
SHAKE stats (type/ave/delta) on step 48800
  1 0.9572 1.96962e-06 2916
  1 104.52 0.000216722
SHAKE stats (type/ave/delta) on step 48900
  1 0.9572 3.25337e-06 2916
  1 104.52 0.000261691
SHAKE stats (type/ave/delta) on step 49000
  1 0.9572 1.82029e-06 2916
  1 104.52 0.000171886
   49000    140.34131   -11015.939   -10193.083     24482.06    22406.916   -11015.939 
SHAKE stats (type/ave/delta) on step 49100
  1 0.9572 1.32958e-06 2916
  1 104.52 0.000191118
SHAKE stats (type/ave/delta) on step 49200
  1 0.9572 1.18898e-06 2916
  1 104.52 0.000147878
SHAKE stats (type/ave/delta) on step 49300
  1 0.9572 2.15855e-06 2916
  1 104.52 0.000220536
SHAKE stats (type/ave/delta) on step 49400
  1 0.9572 2.93921e-06 2916
  1 104.52 0.000211625
SHAKE stats (type/ave/delta) on step 49500
  1 0.9572 2.7367e-06 2916
  1 104.52 0.000296885
SHAKE stats (type/ave/delta) on step 49600
  1 0.9572 2.05712e-06 2916
  1 104.52 0.000206828
SHAKE stats (type/ave/delta) on step 49700
  1 0.9572 1.54831e-06 2916
  1 104.52 0.000157388
SHAKE stats (type/ave/delta) on step 49800
  1 0.9572 1.4678e-06 2916
  1 104.52 0.000178928
SHAKE stats (type/ave/delta) on step 49900
  1 0.9572 1.1573e-06 2916
  1 104.52 0.000174151
SHAKE stats (type/ave/delta) on step 50000
  1 0.9572 1.3001e-06 2916
  1 104.52 0.000151609
   50000    153.62697   -11034.056   -10133.302    26211.465    22406.916   -11034.056 
SHAKE stats (type/ave/delta) on step 50100
  1 0.9572 1.86275e-06 2916
  1 104.52 0.000187017
SHAKE stats (type/ave/delta) on step 50200
  1 0.9572 1.82369e-06 2916
  1 104.52 0.000147282
SHAKE stats (type/ave/delta) on step 50300
  1 0.9572 1.74276e-06 2916
  1 104.52 0.000174102
SHAKE stats (type/ave/delta) on step 50400
  1 0.9572 1.953e-06 2916
  1 104.52 0.000247235
SHAKE stats (type/ave/delta) on step 50500
  1 0.9572 1.58174e-06 2916
  1 104.52 0.000197979
SHAKE stats (type/ave/delta) on step 50600
  1 0.9572 1.71454e-06 2916
  1 104.52 0.000178953
SHAKE stats (type/ave/delta) on step 50700
  1 0.9572 2.42273e-06 2916
  1 104.52 0.000202319
SHAKE stats (type/ave/delta) on step 50800
  1 0.9572 2.63959e-06 2916
  1 104.52 0.000323277
SHAKE stats (type/ave/delta) on step 50900
  1 0.9572 1.4143e-06 2916
  1 104.52 0.000191554
SHAKE stats (type/ave/delta) on step 51000
  1 0.9572 1.7024e-06 2916
  1 104.52 0.000271678
   51000    147.12683   -11048.266   -10185.624    25528.695    22406.916   -11048.266 
SHAKE stats (type/ave/delta) on step 51100
  1 0.9572 1.81325e-06 2916
  1 104.52 0.000229507
SHAKE stats (type/ave/delta) on step 51200
  1 0.9572 1.82782e-06 2916
  1 104.52 0.000242309
SHAKE stats (type/ave/delta) on step 51300
  1 0.9572 2.28024e-06 2916
  1 104.52 0.00027837
SHAKE stats (type/ave/delta) on step 51400
  1 0.9572 2.74147e-06 2916
  1 104.52 0.00027172
SHAKE stats (type/ave/delta) on step 51500
  1 0.9572 1.40662e-06 2916
  1 104.52 0.000147979
SHAKE stats (type/ave/delta) on step 51600
  1 0.9572 1.48387e-06 2916
  1 104.52 0.000195685
SHAKE stats (type/ave/delta) on step 51700
  1 0.9572 1.76924e-06 2916
  1 104.52 0.00018138
SHAKE stats (type/ave/delta) on step 51800
  1 0.9572 1.42184e-06 2916
  1 104.52 0.000155059
SHAKE stats (type/ave/delta) on step 51900
  1 0.9572 2.32165e-06 2916
  1 104.52 0.000233911
SHAKE stats (type/ave/delta) on step 52000
  1 0.9572 2.13776e-06 2916
  1 104.52 0.00019908
   52000    144.00814   -11061.695   -10217.339    25667.726    22406.916   -11061.695 
SHAKE stats (type/ave/delta) on step 52100
  1 0.9572 1.48756e-06 2916
  1 104.52 0.000165142
SHAKE stats (type/ave/delta) on step 52200
  1 0.9572 1.51611e-06 2916
  1 104.52 0.000202784
SHAKE stats (type/ave/delta) on step 52300
  1 0.9572 2.1689e-06 2916
  1 104.52 0.000226254
SHAKE stats (type/ave/delta) on step 52400
  1 0.9572 1.39608e-06 2916
  1 104.52 0.000159124
SHAKE stats (type/ave/delta) on step 52500
  1 0.9572 2.99428e-06 2916
  1 104.52 0.000361119
SHAKE stats (type/ave/delta) on step 52600
  1 0.9572 1.88167e-06 2916
  1 104.52 0.000228688
SHAKE stats (type/ave/delta) on step 52700
  1 0.9572 1.45953e-06 2916
  1 104.52 0.000152824
SHAKE stats (type/ave/delta) on step 52800
  1 0.9572 1.6709e-06 2916
  1 104.52 0.000183583
SHAKE stats (type/ave/delta) on step 52900
  1 0.9572 1.67612e-06 2916
  1 104.52 0.000178802
SHAKE stats (type/ave/delta) on step 53000
  1 0.9572 1.42899e-06 2916
  1 104.52 0.000156441
   53000    153.24508   -10997.644    -10099.13    27954.872    22406.916   -10997.644 
SHAKE stats (type/ave/delta) on step 53100
  1 0.9572 1.88294e-06 2916
  1 104.52 0.000196085
SHAKE stats (type/ave/delta) on step 53200
  1 0.9572 1.90183e-06 2916
  1 104.52 0.00021803
SHAKE stats (type/ave/delta) on step 53300
  1 0.9572 1.69887e-06 2916
  1 104.52 0.000171064
SHAKE stats (type/ave/delta) on step 53400
  1 0.9572 2.07113e-06 2916
  1 104.52 0.000181653
SHAKE stats (type/ave/delta) on step 53500
  1 0.9572 1.66795e-06 2916
  1 104.52 0.000175582
SHAKE stats (type/ave/delta) on step 53600
  1 0.9572 1.44227e-06 2916
  1 104.52 0.000178376
SHAKE stats (type/ave/delta) on step 53700
  1 0.9572 1.65728e-06 2916
  1 104.52 0.000173061
SHAKE stats (type/ave/delta) on step 53800
  1 0.9572 2.0982e-06 2916
  1 104.52 0.000240833
SHAKE stats (type/ave/delta) on step 53900
  1 0.9572 1.87874e-06 2916
  1 104.52 0.00019172
SHAKE stats (type/ave/delta) on step 54000
  1 0.9572 2.45254e-06 2916
  1 104.52 0.000177156
   54000    148.43732    -11092.67   -10222.345    26704.863    22406.916    -11092.67 
SHAKE stats (type/ave/delta) on step 54100
  1 0.9572 1.80742e-06 2916
  1 104.52 0.000208166
SHAKE stats (type/ave/delta) on step 54200
  1 0.9572 3.01614e-06 2916
  1 104.52 0.000195851
SHAKE stats (type/ave/delta) on step 54300
  1 0.9572 1.94531e-06 2916
  1 104.52 0.00024264
SHAKE stats (type/ave/delta) on step 54400
  1 0.9572 1.17452e-06 2916
  1 104.52 0.00016768
SHAKE stats (type/ave/delta) on step 54500
  1 0.9572 1.86768e-06 2916
  1 104.52 0.000229619
SHAKE stats (type/ave/delta) on step 54600
  1 0.9572 1.84433e-06 2916
  1 104.52 0.000149564
SHAKE stats (type/ave/delta) on step 54700
  1 0.9572 2.89183e-06 2916
  1 104.52 0.000284172
SHAKE stats (type/ave/delta) on step 54800
  1 0.9572 2.50686e-06 2916
  1 104.52 0.000190436
SHAKE stats (type/ave/delta) on step 54900
  1 0.9572 2.19346e-06 2916
  1 104.52 0.000239292
SHAKE stats (type/ave/delta) on step 55000
  1 0.9572 1.9591e-06 2916
  1 104.52 0.000187909
   55000    137.96699   -10942.658   -10133.722    28581.317    22406.916   -10942.658 
SHAKE stats (type/ave/delta) on step 55100
  1 0.9572 2.0072e-06 2916
  1 104.52 0.000289056
SHAKE stats (type/ave/delta) on step 55200
  1 0.9572 1.50911e-06 2916
  1 104.52 0.000149743
SHAKE stats (type/ave/delta) on step 55300
  1 0.9572 2.95761e-06 2916
  1 104.52 0.000241397
SHAKE stats (type/ave/delta) on step 55400
  1 0.9572 2.27911e-06 2916
  1 104.52 0.000174601
SHAKE stats (type/ave/delta) on step 55500
  1 0.9572 1.29949e-06 2916
  1 104.52 0.000145632
SHAKE stats (type/ave/delta) on step 55600
  1 0.9572 1.37541e-06 2916
  1 104.52 0.00017251
SHAKE stats (type/ave/delta) on step 55700
  1 0.9572 1.05274e-06 2916
  1 104.52 0.000125412
SHAKE stats (type/ave/delta) on step 55800
  1 0.9572 1.69142e-06 2916
  1 104.52 0.000225991
SHAKE stats (type/ave/delta) on step 55900
  1 0.9572 2.3732e-06 2916
  1 104.52 0.000276309
SHAKE stats (type/ave/delta) on step 56000
  1 0.9572 2.09952e-06 2916
  1 104.52 0.000184496
   56000     144.8311   -11078.208   -10229.026    25911.311    22406.916   -11078.208 
SHAKE stats (type/ave/delta) on step 56100
  1 0.9572 1.24902e-06 2916
  1 104.52 0.000133636
SHAKE stats (type/ave/delta) on step 56200
  1 0.9572 1.43021e-06 2916
  1 104.52 0.000141765
SHAKE stats (type/ave/delta) on step 56300
  1 0.9572 2.30587e-06 2916
  1 104.52 0.00030116
SHAKE stats (type/ave/delta) on step 56400
  1 0.9572 1.86199e-06 2916
  1 104.52 0.000157701
SHAKE stats (type/ave/delta) on step 56500
  1 0.9572 2.66371e-06 2916
  1 104.52 0.000229854
SHAKE stats (type/ave/delta) on step 56600
  1 0.9572 2.70804e-06 2916
  1 104.52 0.000272306
SHAKE stats (type/ave/delta) on step 56700
  1 0.9572 1.36599e-06 2916
  1 104.52 0.00022328
SHAKE stats (type/ave/delta) on step 56800
  1 0.957201 2.83419e-06 2916
  1 104.52 0.000332767
SHAKE stats (type/ave/delta) on step 56900
  1 0.957201 2.93618e-06 2916
  1 104.52 0.000304956
SHAKE stats (type/ave/delta) on step 57000
  1 0.9572 1.76271e-06 2916
  1 104.52 0.000152156
   57000    160.99507   -10981.733   -10037.778    26172.591    22406.916   -10981.733 
SHAKE stats (type/ave/delta) on step 57100
  1 0.9572 2.99384e-06 2916
  1 104.52 0.000285823
SHAKE stats (type/ave/delta) on step 57200
  1 0.9572 3.79733e-06 2916
  1 104.52 0.000236367
SHAKE stats (type/ave/delta) on step 57300
  1 0.9572 1.49708e-06 2916
  1 104.52 0.000163417
SHAKE stats (type/ave/delta) on step 57400
  1 0.9572 1.64524e-06 2916
  1 104.52 0.000199731
SHAKE stats (type/ave/delta) on step 57500
  1 0.957201 2.91966e-06 2916
  1 104.52 0.000232495
SHAKE stats (type/ave/delta) on step 57600
  1 0.9572 1.8254e-06 2916
  1 104.52 0.000198436
SHAKE stats (type/ave/delta) on step 57700
  1 0.9572 3.40748e-06 2916
  1 104.52 0.000329653
SHAKE stats (type/ave/delta) on step 57800
  1 0.9572 4.18592e-06 2916
  1 104.52 0.000369149
SHAKE stats (type/ave/delta) on step 57900
  1 0.9572 2.19356e-06 2916
  1 104.52 0.000212396
SHAKE stats (type/ave/delta) on step 58000
  1 0.9572 1.74554e-06 2916
  1 104.52 0.000209527
   58000    136.64871   -11058.441   -10257.235    28685.892    22406.916   -11058.441 
SHAKE stats (type/ave/delta) on step 58100
  1 0.957201 2.60609e-06 2916
  1 104.52 0.000339956
SHAKE stats (type/ave/delta) on step 58200
  1 0.9572 2.19136e-06 2916
  1 104.52 0.000226856
SHAKE stats (type/ave/delta) on step 58300
  1 0.9572 2.00989e-06 2916
  1 104.52 0.000208137
SHAKE stats (type/ave/delta) on step 58400
  1 0.9572 3.83447e-06 2916
  1 104.52 0.000298015
SHAKE stats (type/ave/delta) on step 58500
  1 0.9572 3.11484e-06 2916
  1 104.52 0.000258331
SHAKE stats (type/ave/delta) on step 58600
  1 0.9572 1.65334e-06 2916
  1 104.52 0.000168421
SHAKE stats (type/ave/delta) on step 58700
  1 0.9572 1.70111e-06 2916
  1 104.52 0.000216968
SHAKE stats (type/ave/delta) on step 58800
  1 0.9572 1.81603e-06 2916
  1 104.52 0.000175964
SHAKE stats (type/ave/delta) on step 58900
  1 0.9572 1.42785e-06 2916
  1 104.52 0.000164269
SHAKE stats (type/ave/delta) on step 59000
  1 0.9572 2.6187e-06 2916
  1 104.52 0.000220791
   59000    155.44272   -10987.314   -10075.913    28104.559    22406.916   -10987.314 
SHAKE stats (type/ave/delta) on step 59100
  1 0.9572 3.76228e-06 2916
  1 104.52 0.00047782
SHAKE stats (type/ave/delta) on step 59200
  1 0.9572 2.76669e-06 2916
  1 104.52 0.000260604
SHAKE stats (type/ave/delta) on step 59300
  1 0.9572 2.08522e-06 2916
  1 104.52 0.000287653
SHAKE stats (type/ave/delta) on step 59400
  1 0.957201 4.93833e-06 2916
  1 104.52 0.000320341
SHAKE stats (type/ave/delta) on step 59500
  1 0.957201 2.41063e-06 2916
  1 104.52 0.000269505
SHAKE stats (type/ave/delta) on step 59600
  1 0.9572 2.65651e-06 2916
  1 104.52 0.000192945
SHAKE stats (type/ave/delta) on step 59700
  1 0.9572 4.09626e-06 2916
  1 104.52 0.000448741
SHAKE stats (type/ave/delta) on step 59800
  1 0.9572 2.96744e-06 2916
  1 104.52 0.000278401
SHAKE stats (type/ave/delta) on step 59900
  1 0.9572 2.04372e-06 2916
  1 104.52 0.000195662
SHAKE stats (type/ave/delta) on step 60000
  1 0.9572 2.63196e-06 2916
  1 104.52 0.000222565
   60000    142.16427   -11086.362   -10252.817    27547.841    22406.916   -11086.362 
SHAKE stats (type/ave/delta) on step 60100
  1 0.957201 4.5885e-06 2916
  1 104.52 0.000575674
SHAKE stats (type/ave/delta) on step 60200
  1 0.9572 3.11765e-06 2916
  1 104.52 0.000192792
SHAKE stats (type/ave/delta) on step 60300
  1 0.9572 1.50809e-06 2916
  1 104.52 0.000165859
SHAKE stats (type/ave/delta) on step 60400
  1 0.9572 3.42081e-06 2916
  1 104.52 0.000302918
SHAKE stats (type/ave/delta) on step 60500
  1 0.9572 1.89634e-06 2916
  1 104.52 0.000173672
SHAKE stats (type/ave/delta) on step 60600
  1 0.9572 1.44959e-06 2916
  1 104.52 0.000172954
SHAKE stats (type/ave/delta) on step 60700
  1 0.9572 1.97761e-06 2916
  1 104.52 0.000205892
SHAKE stats (type/ave/delta) on step 60800
  1 0.957201 2.67624e-06 2916
  1 104.52 0.000261664
SHAKE stats (type/ave/delta) on step 60900
  1 0.9572 1.82601e-06 2916
  1 104.52 0.000171075
SHAKE stats (type/ave/delta) on step 61000
  1 0.9572 1.74663e-06 2916
  1 104.52 0.000183468
   61000    155.61924   -10981.317   -10068.881     27343.16    22406.916   -10981.317 
SHAKE stats (type/ave/delta) on step 61100
  1 0.9572 2.93053e-06 2916
  1 104.52 0.000253013
SHAKE stats (type/ave/delta) on step 61200
  1 0.9572 3.83283e-06 2916
  1 104.52 0.00028346
SHAKE stats (type/ave/delta) on step 61300
  1 0.9572 1.17127e-06 2916
  1 104.52 0.000146033
SHAKE stats (type/ave/delta) on step 61400
  1 0.9572 1.81641e-06 2916
  1 104.52 0.000217476
SHAKE stats (type/ave/delta) on step 61500
  1 0.957201 3.47465e-06 2916
  1 104.52 0.000299726
SHAKE stats (type/ave/delta) on step 61600
  1 0.9572 1.7281e-06 2916
  1 104.52 0.000190936
SHAKE stats (type/ave/delta) on step 61700
  1 0.9572 1.93459e-06 2916
  1 104.52 0.000182576
SHAKE stats (type/ave/delta) on step 61800
  1 0.9572 2.42447e-06 2916
  1 104.52 0.000258365
SHAKE stats (type/ave/delta) on step 61900
  1 0.9572 2.66137e-06 2916
  1 104.52 0.000260898
SHAKE stats (type/ave/delta) on step 62000
  1 0.9572 1.12725e-06 2916
  1 104.52 0.000150197
   62000     139.8447   -11162.518   -10342.573    26219.411    22406.916   -11162.518 
SHAKE stats (type/ave/delta) on step 62100
  1 0.9572 1.88822e-06 2916
  1 104.52 0.000237204
SHAKE stats (type/ave/delta) on step 62200
  1 0.9572 1.65507e-06 2916
  1 104.52 0.000149618
SHAKE stats (type/ave/delta) on step 62300
  1 0.9572 1.45704e-06 2916
  1 104.52 0.000191743
SHAKE stats (type/ave/delta) on step 62400
  1 0.9572 2.34081e-06 2916
  1 104.52 0.000200193
SHAKE stats (type/ave/delta) on step 62500
  1 0.9572 2.62967e-06 2916
  1 104.52 0.000321507
SHAKE stats (type/ave/delta) on step 62600
  1 0.9572 1.67509e-06 2916
  1 104.52 0.000215006
SHAKE stats (type/ave/delta) on step 62700
  1 0.9572 2.17915e-06 2916
  1 104.52 0.000246727
SHAKE stats (type/ave/delta) on step 62800
  1 0.9572 2.75989e-06 2916
  1 104.52 0.000294971
SHAKE stats (type/ave/delta) on step 62900
  1 0.9572 1.73038e-06 2916
  1 104.52 0.000262041
SHAKE stats (type/ave/delta) on step 63000
  1 0.9572 1.65737e-06 2916
  1 104.52 0.000207233
   63000    157.32463    -11058.29   -10135.856     27167.38    22406.916    -11058.29 
SHAKE stats (type/ave/delta) on step 63100
  1 0.9572 2.21952e-06 2916
  1 104.52 0.000176184
SHAKE stats (type/ave/delta) on step 63200
  1 0.9572 2.2877e-06 2916
  1 104.52 0.000247501
SHAKE stats (type/ave/delta) on step 63300
  1 0.9572 1.82652e-06 2916
  1 104.52 0.000188107
SHAKE stats (type/ave/delta) on step 63400
  1 0.9572 1.4487e-06 2916
  1 104.52 0.000174505
SHAKE stats (type/ave/delta) on step 63500
  1 0.9572 2.02892e-06 2916
  1 104.52 0.000238006
SHAKE stats (type/ave/delta) on step 63600
  1 0.9572 1.76608e-06 2916
  1 104.52 0.000154815
SHAKE stats (type/ave/delta) on step 63700
  1 0.9572 2.12075e-06 2916
  1 104.52 0.000209197
SHAKE stats (type/ave/delta) on step 63800
  1 0.9572 2.90091e-06 2916
  1 104.52 0.000280856
SHAKE stats (type/ave/delta) on step 63900
  1 0.9572 2.32576e-06 2916
  1 104.52 0.000191063
SHAKE stats (type/ave/delta) on step 64000
  1 0.9572 1.4285e-06 2916
  1 104.52 0.000169379
   64000    145.13065   -11147.716   -10296.778    26559.262    22406.916   -11147.716 
SHAKE stats (type/ave/delta) on step 64100
  1 0.9572 2.72874e-06 2916
  1 104.52 0.00023648
SHAKE stats (type/ave/delta) on step 64200
  1 0.9572 1.83105e-06 2916
  1 104.52 0.000183459
SHAKE stats (type/ave/delta) on step 64300
  1 0.9572 1.71082e-06 2916
  1 104.52 0.000174192
SHAKE stats (type/ave/delta) on step 64400
  1 0.9572 2.97751e-06 2916
  1 104.52 0.000204611
SHAKE stats (type/ave/delta) on step 64500
  1 0.9572 2.32717e-06 2916
  1 104.52 0.000241398
SHAKE stats (type/ave/delta) on step 64600
  1 0.9572 1.45326e-06 2916
  1 104.52 0.000188546
SHAKE stats (type/ave/delta) on step 64700
  1 0.9572 1.51595e-06 2916
  1 104.52 0.000215602
SHAKE stats (type/ave/delta) on step 64800
  1 0.9572 1.81658e-06 2916
  1 104.52 0.000188636
SHAKE stats (type/ave/delta) on step 64900
  1 0.9572 1.69117e-06 2916
  1 104.52 0.000206434
SHAKE stats (type/ave/delta) on step 65000
  1 0.9572 2.60095e-06 2916
  1 104.52 0.000295991
   65000    151.10825   -11061.846    -10175.86    27753.479    22406.916   -11061.846 
SHAKE stats (type/ave/delta) on step 65100
  1 0.9572 2.44544e-06 2916
  1 104.52 0.000250196
SHAKE stats (type/ave/delta) on step 65200
  1 0.9572 2.16987e-06 2916
  1 104.52 0.0002062
SHAKE stats (type/ave/delta) on step 65300
  1 0.9572 1.57578e-06 2916
  1 104.52 0.000190828
SHAKE stats (type/ave/delta) on step 65400
  1 0.9572 2.05814e-06 2916
  1 104.52 0.000200849
SHAKE stats (type/ave/delta) on step 65500
  1 0.9572 1.34131e-06 2916
  1 104.52 0.000178204
SHAKE stats (type/ave/delta) on step 65600
  1 0.9572 2.20658e-06 2916
  1 104.52 0.000205213
SHAKE stats (type/ave/delta) on step 65700
  1 0.9572 2.50091e-06 2916
  1 104.52 0.000198748
SHAKE stats (type/ave/delta) on step 65800
  1 0.9572 2.10086e-06 2916
  1 104.52 0.000243322
SHAKE stats (type/ave/delta) on step 65900
  1 0.9572 1.29381e-06 2916
  1 104.52 0.000170384
SHAKE stats (type/ave/delta) on step 66000
  1 0.9572 1.68934e-06 2916
  1 104.52 0.000200582
   66000    147.57381   -11064.218   -10198.955    26771.986    22406.916   -11064.218 
SHAKE stats (type/ave/delta) on step 66100
  1 0.9572 1.89765e-06 2916
  1 104.52 0.000260391
SHAKE stats (type/ave/delta) on step 66200
  1 0.9572 1.44442e-06 2916
  1 104.52 0.000197392
SHAKE stats (type/ave/delta) on step 66300
  1 0.9572 3.12668e-06 2916
  1 104.52 0.000234724
SHAKE stats (type/ave/delta) on step 66400
  1 0.9572 2.51657e-06 2916
  1 104.52 0.00020394
SHAKE stats (type/ave/delta) on step 66500
  1 0.9572 1.64025e-06 2916
  1 104.52 0.000166998
SHAKE stats (type/ave/delta) on step 66600
  1 0.9572 1.50247e-06 2916
  1 104.52 0.000200184
SHAKE stats (type/ave/delta) on step 66700
  1 0.9572 2.51516e-06 2916
  1 104.52 0.000197156
SHAKE stats (type/ave/delta) on step 66800
  1 0.9572 1.59595e-06 2916
  1 104.52 0.000222399
SHAKE stats (type/ave/delta) on step 66900
  1 0.9572 1.32182e-06 2916
  1 104.52 0.000150814
SHAKE stats (type/ave/delta) on step 67000
  1 0.9572 2.53081e-06 2916
  1 104.52 0.00021609
   67000     149.5411   -11018.037   -10141.239     28252.43    22406.916   -11018.037 
SHAKE stats (type/ave/delta) on step 67100
  1 0.9572 2.19856e-06 2916
  1 104.52 0.000190627
SHAKE stats (type/ave/delta) on step 67200
  1 0.9572 1.20223e-06 2916
  1 104.52 0.00013904
SHAKE stats (type/ave/delta) on step 67300
  1 0.9572 2.51279e-06 2916
  1 104.52 0.00026335
SHAKE stats (type/ave/delta) on step 67400
  1 0.9572 2.48179e-06 2916
  1 104.52 0.000229119
SHAKE stats (type/ave/delta) on step 67500
  1 0.9572 1.75158e-06 2916
  1 104.52 0.000132417
SHAKE stats (type/ave/delta) on step 67600
  1 0.9572 2.68776e-06 2916
  1 104.52 0.000295442
SHAKE stats (type/ave/delta) on step 67700
  1 0.9572 3.02259e-06 2916
  1 104.52 0.000269656
SHAKE stats (type/ave/delta) on step 67800
  1 0.9572 1.25833e-06 2916
  1 104.52 0.000141774
SHAKE stats (type/ave/delta) on step 67900
  1 0.9572 2.28761e-06 2916
  1 104.52 0.000183623
SHAKE stats (type/ave/delta) on step 68000
  1 0.957201 2.83796e-06 2916
  1 104.52 0.000321977
   68000    149.60909    -11040.43   -10163.234     27766.81    22406.916    -11040.43 
SHAKE stats (type/ave/delta) on step 68100
  1 0.9572 1.54778e-06 2916
  1 104.52 0.000162978
SHAKE stats (type/ave/delta) on step 68200
  1 0.9572 1.84973e-06 2916
  1 104.52 0.000207517
SHAKE stats (type/ave/delta) on step 68300
  1 0.9572 3.88372e-06 2916
  1 104.52 0.000403628
SHAKE stats (type/ave/delta) on step 68400
  1 0.9572 2.04046e-06 2916
  1 104.52 0.000209112
SHAKE stats (type/ave/delta) on step 68500
  1 0.9572 1.08984e-06 2916
  1 104.52 0.000130384
SHAKE stats (type/ave/delta) on step 68600
  1 0.9572 2.1624e-06 2916
  1 104.52 0.000186187
SHAKE stats (type/ave/delta) on step 68700
  1 0.9572 1.80857e-06 2916
  1 104.52 0.000230738
SHAKE stats (type/ave/delta) on step 68800
  1 0.9572 1.60207e-06 2916
  1 104.52 0.000219195
SHAKE stats (type/ave/delta) on step 68900
  1 0.9572 2.57388e-06 2916
  1 104.52 0.000283098
SHAKE stats (type/ave/delta) on step 69000
  1 0.9572 2.80927e-06 2916
  1 104.52 0.000289785
   69000    138.42614   -10997.103   -10185.475    28790.214    22406.916   -10997.103 
SHAKE stats (type/ave/delta) on step 69100
  1 0.9572 1.78021e-06 2916
  1 104.52 0.000214386
SHAKE stats (type/ave/delta) on step 69200
  1 0.9572 1.6603e-06 2916
  1 104.52 0.000179011
SHAKE stats (type/ave/delta) on step 69300
  1 0.957201 2.28987e-06 2916
  1 104.52 0.000239935
SHAKE stats (type/ave/delta) on step 69400
  1 0.9572 1.59343e-06 2916
  1 104.52 0.000189945
SHAKE stats (type/ave/delta) on step 69500
  1 0.9572 1.49149e-06 2916
  1 104.52 0.000149453
SHAKE stats (type/ave/delta) on step 69600
  1 0.9572 2.51985e-06 2916
  1 104.52 0.000233615
SHAKE stats (type/ave/delta) on step 69700
  1 0.9572 1.98659e-06 2916
  1 104.52 0.000222214
SHAKE stats (type/ave/delta) on step 69800
  1 0.9572 1.15551e-06 2916
  1 104.52 0.00015105
SHAKE stats (type/ave/delta) on step 69900
  1 0.9572 1.99664e-06 2916
  1 104.52 0.000209743
SHAKE stats (type/ave/delta) on step 70000
  1 0.9572 2.48674e-06 2916
  1 104.52 0.000205461
   70000    152.39863   -10996.784   -10103.232    29193.257    22406.916   -10996.784 
SHAKE stats (type/ave/delta) on step 70100
  1 0.9572 1.07402e-06 2916
  1 104.52 0.000129024
SHAKE stats (type/ave/delta) on step 70200
  1 0.9572 2.43098e-06 2916
  1 104.52 0.000251752
SHAKE stats (type/ave/delta) on step 70300
  1 0.9572 2.69503e-06 2916
  1 104.52 0.000194112
SHAKE stats (type/ave/delta) on step 70400
  1 0.9572 1.15951e-06 2916
  1 104.52 0.000133753
SHAKE stats (type/ave/delta) on step 70500
  1 0.9572 1.30671e-06 2916
  1 104.52 0.000158167
SHAKE stats (type/ave/delta) on step 70600
  1 0.9572 1.24462e-06 2916
  1 104.52 0.00014099
SHAKE stats (type/ave/delta) on step 70700
  1 0.9572 1.66673e-06 2916
  1 104.52 0.000227404
SHAKE stats (type/ave/delta) on step 70800
  1 0.9572 1.51437e-06 2916
  1 104.52 0.000148977
SHAKE stats (type/ave/delta) on step 70900
  1 0.9572 3.06541e-06 2916
  1 104.52 0.00026055
SHAKE stats (type/ave/delta) on step 71000
  1 0.9572 1.72207e-06 2916
  1 104.52 0.000178339
   71000    144.67984    -11074.18   -10225.885    28657.936    22406.916    -11074.18 
SHAKE stats (type/ave/delta) on step 71100
  1 0.9572 1.32884e-06 2916
  1 104.52 0.000182516
SHAKE stats (type/ave/delta) on step 71200
  1 0.9572 1.80064e-06 2916
  1 104.52 0.00024233
SHAKE stats (type/ave/delta) on step 71300
  1 0.9572 2.57493e-06 2916
  1 104.52 0.000288336
SHAKE stats (type/ave/delta) on step 71400
  1 0.9572 9.64902e-07 2916
  1 104.52 0.000122046
SHAKE stats (type/ave/delta) on step 71500
  1 0.9572 3.04167e-06 2916
  1 104.52 0.000236543
SHAKE stats (type/ave/delta) on step 71600
  1 0.9572 2.81066e-06 2916
  1 104.52 0.000247243
SHAKE stats (type/ave/delta) on step 71700
  1 0.9572 1.20461e-06 2916
  1 104.52 0.000124974
SHAKE stats (type/ave/delta) on step 71800
  1 0.9572 2.31485e-06 2916
  1 104.52 0.000269532
SHAKE stats (type/ave/delta) on step 71900
  1 0.9572 2.05827e-06 2916
  1 104.52 0.000209446
SHAKE stats (type/ave/delta) on step 72000
  1 0.9572 1.55259e-06 2916
  1 104.52 0.000202828
   72000    157.45348   -10989.628   -10066.438    29026.218    22406.916   -10989.628 
SHAKE stats (type/ave/delta) on step 72100
  1 0.9572 1.75362e-06 2916
  1 104.52 0.000186889
SHAKE stats (type/ave/delta) on step 72200
  1 0.9572 2.08583e-06 2916
  1 104.52 0.000198721
SHAKE stats (type/ave/delta) on step 72300
  1 0.9572 1.86035e-06 2916
  1 104.52 0.000251329
SHAKE stats (type/ave/delta) on step 72400
  1 0.9572 1.33515e-06 2916
  1 104.52 0.000166513
SHAKE stats (type/ave/delta) on step 72500
  1 0.9572 1.13108e-06 2916
  1 104.52 0.000162462
SHAKE stats (type/ave/delta) on step 72600
  1 0.9572 1.35685e-06 2916
  1 104.52 0.000178991
SHAKE stats (type/ave/delta) on step 72700
  1 0.9572 1.40504e-06 2916
  1 104.52 0.000157894
SHAKE stats (type/ave/delta) on step 72800
  1 0.9572 2.47562e-06 2916
  1 104.52 0.00021601
SHAKE stats (type/ave/delta) on step 72900
  1 0.9572 2.16189e-06 2916
  1 104.52 0.000235917
SHAKE stats (type/ave/delta) on step 73000
  1 0.9572 1.97602e-06 2916
  1 104.52 0.000203228
   73000    144.24987   -11035.837   -10190.064    26959.933    22406.916   -11035.837 
SHAKE stats (type/ave/delta) on step 73100
  1 0.9572 1.69423e-06 2916
  1 104.52 0.000170518
SHAKE stats (type/ave/delta) on step 73200
  1 0.9572 1.52223e-06 2916
  1 104.52 0.00019368
SHAKE stats (type/ave/delta) on step 73300
  1 0.9572 1.55819e-06 2916
  1 104.52 0.000176309
SHAKE stats (type/ave/delta) on step 73400
  1 0.9572 2.15043e-06 2916
  1 104.52 0.000219786
SHAKE stats (type/ave/delta) on step 73500
  1 0.9572 2.32988e-06 2916
  1 104.52 0.000205772
SHAKE stats (type/ave/delta) on step 73600
  1 0.9572 1.69492e-06 2916
  1 104.52 0.000168498
SHAKE stats (type/ave/delta) on step 73700
  1 0.9572 2.66485e-06 2916
  1 104.52 0.00032439
SHAKE stats (type/ave/delta) on step 73800
  1 0.9572 2.03064e-06 2916
  1 104.52 0.000219819
SHAKE stats (type/ave/delta) on step 73900
  1 0.9572 2.02901e-06 2916
  1 104.52 0.000165829
SHAKE stats (type/ave/delta) on step 74000
  1 0.9572 1.66271e-06 2916
  1 104.52 0.000178629
   74000     144.0814   -11077.152   -10232.367    25905.198    22406.916   -11077.152 
SHAKE stats (type/ave/delta) on step 74100
  1 0.9572 1.40665e-06 2916
  1 104.52 0.000161428
SHAKE stats (type/ave/delta) on step 74200
  1 0.9572 2.1908e-06 2916
  1 104.52 0.000217752
SHAKE stats (type/ave/delta) on step 74300
  1 0.9572 2.59342e-06 2916
  1 104.52 0.000229594
SHAKE stats (type/ave/delta) on step 74400
  1 0.9572 2.93265e-06 2916
  1 104.52 0.000246527
SHAKE stats (type/ave/delta) on step 74500
  1 0.9572 1.87041e-06 2916
  1 104.52 0.00019765
SHAKE stats (type/ave/delta) on step 74600
  1 0.9572 1.71693e-06 2916
  1 104.52 0.000208804
SHAKE stats (type/ave/delta) on step 74700
  1 0.9572 1.8874e-06 2916
  1 104.52 0.000247547
SHAKE stats (type/ave/delta) on step 74800
  1 0.9572 2.71102e-06 2916
  1 104.52 0.000172379
SHAKE stats (type/ave/delta) on step 74900
  1 0.9572 1.36258e-06 2916
  1 104.52 0.000176009
SHAKE stats (type/ave/delta) on step 75000
  1 0.9572 1.98335e-06 2916
  1 104.52 0.000200362
   75000    144.49361   -10839.961   -9992.7585    28002.668    22406.916   -10839.961 
SHAKE stats (type/ave/delta) on step 75100
  1 0.9572 1.94189e-06 2916
  1 104.52 0.000251998
SHAKE stats (type/ave/delta) on step 75200
  1 0.9572 2.36303e-06 2916
  1 104.52 0.000221605
SHAKE stats (type/ave/delta) on step 75300
  1 0.9572 1.4738e-06 2916
  1 104.52 0.000159442
SHAKE stats (type/ave/delta) on step 75400
  1 0.9572 1.25173e-06 2916
  1 104.52 0.000165719
SHAKE stats (type/ave/delta) on step 75500
  1 0.9572 1.19845e-06 2916
  1 104.52 0.000154489
SHAKE stats (type/ave/delta) on step 75600
  1 0.9572 1.5169e-06 2916
  1 104.52 0.000213875
SHAKE stats (type/ave/delta) on step 75700
  1 0.9572 3.00752e-06 2916
  1 104.52 0.000259091
SHAKE stats (type/ave/delta) on step 75800
  1 0.9572 1.48817e-06 2916
  1 104.52 0.000191484
SHAKE stats (type/ave/delta) on step 75900
  1 0.9572 1.38512e-06 2916
  1 104.52 0.000173405
SHAKE stats (type/ave/delta) on step 76000
  1 0.9572 1.43748e-06 2916
  1 104.52 0.000173859
   76000    148.46965   -10972.904   -10102.389    28367.876    22406.916   -10972.904 
SHAKE stats (type/ave/delta) on step 76100
  1 0.9572 1.13083e-06 2916
  1 104.52 0.000150858
SHAKE stats (type/ave/delta) on step 76200
  1 0.9572 1.32805e-06 2916
[...]
  1 0.95714 0.0114326 2916
  1 104.524 1.07962
SHAKE stats (type/ave/delta) on step 1482600
  1 0.957388 0.0112611 2916
  1 104.512 1.16993
SHAKE stats (type/ave/delta) on step 1482700
  1 0.957059 0.012684 2916
  1 104.525 1.1257
SHAKE stats (type/ave/delta) on step 1482800
  1 0.95713 0.0114206 2916
  1 104.522 1.10232
SHAKE stats (type/ave/delta) on step 1482900
  1 0.957217 0.0119557 2916
  1 104.531 1.16689
SHAKE stats (type/ave/delta) on step 1483000
  1 0.957272 0.012662 2916
  1 104.522 1.05243
 1483000    144.75438    -11091.07   -10242.339    26473.781    22406.916    -11091.07            0            0 
SHAKE stats (type/ave/delta) on step 1483100
  1 0.957202 0.0118769 2916
  1 104.513 1.0393
SHAKE stats (type/ave/delta) on step 1483200
  1 0.957203 0.0110066 2916
  1 104.521 1.03874
SHAKE stats (type/ave/delta) on step 1483300
  1 0.957277 0.0120325 2916
  1 104.514 0.994987
SHAKE stats (type/ave/delta) on step 1483400
  1 0.957238 0.0136199 2916
  1 104.51 1.3574
SHAKE stats (type/ave/delta) on step 1483500
  1 0.957138 0.01118 2916
  1 104.515 1.01227
SHAKE stats (type/ave/delta) on step 1483600
  1 0.957242 0.0121262 2916
  1 104.514 1.12214
SHAKE stats (type/ave/delta) on step 1483700
  1 0.957238 0.0115894 2916
  1 104.517 1.02606
SHAKE stats (type/ave/delta) on step 1483800
  1 0.957247 0.0119582 2916
  1 104.521 1.00816
SHAKE stats (type/ave/delta) on step 1483900
  1 0.957165 0.0111932 2916
  1 104.528 1.04023
SHAKE stats (type/ave/delta) on step 1484000
  1 0.957109 0.0124982 2916
  1 104.542 1.1185
 1484000    154.60527   -11096.325   -10189.835    27008.399    22406.916   -11096.325            0            0 
SHAKE stats (type/ave/delta) on step 1484100
  1 0.957253 0.0110635 2916
  1 104.512 1.01442
SHAKE stats (type/ave/delta) on step 1484200
  1 0.957091 0.0120402 2916
  1 104.527 1.18489
SHAKE stats (type/ave/delta) on step 1484300
  1 0.957175 0.0114729 2916
  1 104.524 1.18943
SHAKE stats (type/ave/delta) on step 1484400
  1 0.957278 0.0120274 2916
  1 104.518 1.1051
SHAKE stats (type/ave/delta) on step 1484500
  1 0.957186 0.0122608 2916
  1 104.52 1.21093
SHAKE stats (type/ave/delta) on step 1484600
  1 0.957121 0.0112399 2916
  1 104.518 1.12807
SHAKE stats (type/ave/delta) on step 1484700
  1 0.957087 0.0115764 2916
  1 104.515 0.996938
SHAKE stats (type/ave/delta) on step 1484800
  1 0.957097 0.011334 2916
  1 104.519 1.01929
SHAKE stats (type/ave/delta) on step 1484900
  1 0.95715 0.0115599 2916
  1 104.524 1.13061
SHAKE stats (type/ave/delta) on step 1485000
  1 0.957281 0.0119096 2916
  1 104.51 1.02023
 1485000    142.91954   -11084.474   -10246.501    26709.048    22406.916   -11084.474            0            0 
SHAKE stats (type/ave/delta) on step 1485100
  1 0.957263 0.0123549 2916
  1 104.514 0.987881
SHAKE stats (type/ave/delta) on step 1485200
  1 0.95733 0.0114558 2916
  1 104.523 1.17169
SHAKE stats (type/ave/delta) on step 1485300
  1 0.957154 0.0111555 2916
  1 104.524 0.984481
SHAKE stats (type/ave/delta) on step 1485400
  1 0.957255 0.0116702 2916
  1 104.515 1.03693
SHAKE stats (type/ave/delta) on step 1485500
  1 0.957251 0.0121881 2916
  1 104.514 1.06222
SHAKE stats (type/ave/delta) on step 1485600
  1 0.957219 0.0110823 2916
  1 104.523 1.02521
SHAKE stats (type/ave/delta) on step 1485700
  1 0.957328 0.0117321 2916
  1 104.5 1.02694
SHAKE stats (type/ave/delta) on step 1485800
  1 0.957186 0.0131142 2916
  1 104.522 1.04638
SHAKE stats (type/ave/delta) on step 1485900
  1 0.957237 0.0124821 2916
  1 104.511 1.08172
SHAKE stats (type/ave/delta) on step 1486000
  1 0.957192 0.0118936 2916
  1 104.523 1.14569
 1486000    149.07848   -11054.396   -10180.311    28447.369    22406.916   -11054.396            0            0 
SHAKE stats (type/ave/delta) on step 1486100
  1 0.957345 0.0119553 2916
  1 104.523 0.984878
SHAKE stats (type/ave/delta) on step 1486200
  1 0.957232 0.0127642 2916
  1 104.521 1.15423
SHAKE stats (type/ave/delta) on step 1486300
  1 0.957126 0.0119034 2916
  1 104.523 1.06597
SHAKE stats (type/ave/delta) on step 1486400
  1 0.957124 0.0121587 2916
  1 104.516 1.05013
SHAKE stats (type/ave/delta) on step 1486500
  1 0.957298 0.0109383 2916
  1 104.507 1.04229
SHAKE stats (type/ave/delta) on step 1486600
  1 0.95715 0.012472 2916
  1 104.53 1.13077
SHAKE stats (type/ave/delta) on step 1486700
  1 0.957162 0.011671 2916
  1 104.514 1.11388
SHAKE stats (type/ave/delta) on step 1486800
  1 0.95724 0.0121436 2916
  1 104.527 1.02418
SHAKE stats (type/ave/delta) on step 1486900
  1 0.957231 0.0115555 2916
  1 104.506 1.0046
SHAKE stats (type/ave/delta) on step 1487000
  1 0.95726 0.0108956 2916
  1 104.529 1.06163
 1487000    151.60383   -11085.812   -10196.921    27687.225    22406.916   -11085.812            0            0 
SHAKE stats (type/ave/delta) on step 1487100
  1 0.957147 0.0116448 2916
  1 104.506 1.00081
SHAKE stats (type/ave/delta) on step 1487200
  1 0.957172 0.0125692 2916
  1 104.518 1.04645
SHAKE stats (type/ave/delta) on step 1487300
  1 0.95716 0.0117545 2916
  1 104.539 0.953825
SHAKE stats (type/ave/delta) on step 1487400
  1 0.957279 0.0122541 2916
  1 104.525 1.04696
SHAKE stats (type/ave/delta) on step 1487500
  1 0.957207 0.0118159 2916
  1 104.527 1.03213
SHAKE stats (type/ave/delta) on step 1487600
  1 0.957306 0.0116655 2916
  1 104.514 1.05667
SHAKE stats (type/ave/delta) on step 1487700
  1 0.957191 0.0127563 2916
  1 104.516 1.08164
SHAKE stats (type/ave/delta) on step 1487800
  1 0.957212 0.0112747 2916
  1 104.522 1.16195
SHAKE stats (type/ave/delta) on step 1487900
  1 0.957089 0.010524 2916
  1 104.524 1.10276
SHAKE stats (type/ave/delta) on step 1488000
  1 0.957149 0.0112467 2916
  1 104.521 1.09359
 1488000    147.81746   -11066.756   -10200.065    27968.737    22406.916   -11066.756            0            0 
SHAKE stats (type/ave/delta) on step 1488100
  1 0.957267 0.0122403 2916
  1 104.519 1.21316
SHAKE stats (type/ave/delta) on step 1488200
  1 0.957168 0.0118702 2916
  1 104.534 1.12263
SHAKE stats (type/ave/delta) on step 1488300
  1 0.957232 0.012446 2916
  1 104.51 0.98004
SHAKE stats (type/ave/delta) on step 1488400
  1 0.957127 0.0115022 2916
  1 104.526 1.05401
SHAKE stats (type/ave/delta) on step 1488500
  1 0.957174 0.0116039 2916
  1 104.509 1.10068
SHAKE stats (type/ave/delta) on step 1488600
  1 0.957183 0.0122022 2916
  1 104.511 1.00685
SHAKE stats (type/ave/delta) on step 1488700
  1 0.957182 0.0117041 2916
  1 104.536 1.00736
SHAKE stats (type/ave/delta) on step 1488800
  1 0.957232 0.0123027 2916
  1 104.516 1.10051
SHAKE stats (type/ave/delta) on step 1488900
  1 0.957259 0.0112085 2916
  1 104.511 1.20358
SHAKE stats (type/ave/delta) on step 1489000
  1 0.957107 0.0120496 2916
  1 104.521 1.13681
 1489000    145.10765   -11125.522   -10274.719    27624.989    22406.916   -11125.522            0            0 
SHAKE stats (type/ave/delta) on step 1489100
  1 0.95724 0.0109552 2916
  1 104.518 1.07199
SHAKE stats (type/ave/delta) on step 1489200
  1 0.957271 0.0120965 2916
  1 104.512 1.16015
SHAKE stats (type/ave/delta) on step 1489300
  1 0.957158 0.0117336 2916
  1 104.522 1.05886
SHAKE stats (type/ave/delta) on step 1489400
  1 0.957149 0.0124003 2916
  1 104.527 1.14406
SHAKE stats (type/ave/delta) on step 1489500
  1 0.957336 0.0118537 2916
  1 104.527 1.07908
SHAKE stats (type/ave/delta) on step 1489600
  1 0.957208 0.0114891 2916
  1 104.513 1.06018
SHAKE stats (type/ave/delta) on step 1489700
  1 0.957141 0.0120213 2916
  1 104.521 1.10604
SHAKE stats (type/ave/delta) on step 1489800
  1 0.95704 0.0121104 2916
  1 104.524 0.992048
SHAKE stats (type/ave/delta) on step 1489900
  1 0.957238 0.0119238 2916
  1 104.532 1.08172
SHAKE stats (type/ave/delta) on step 1490000
  1 0.957123 0.0113737 2916
  1 104.514 1.08338
 1490000    145.89075   -11108.832   -10253.438    26820.104    22406.916   -11108.832            0            0 
SHAKE stats (type/ave/delta) on step 1490100
  1 0.957359 0.0125979 2916
  1 104.51 1.10932
SHAKE stats (type/ave/delta) on step 1490200
  1 0.957259 0.0112701 2916
  1 104.519 1.19253
SHAKE stats (type/ave/delta) on step 1490300
  1 0.957267 0.0122908 2916
  1 104.508 1.27958
SHAKE stats (type/ave/delta) on step 1490400
  1 0.957226 0.0117068 2916
  1 104.521 1.02856
SHAKE stats (type/ave/delta) on step 1490500
  1 0.957198 0.0120253 2916
  1 104.519 1.05193
SHAKE stats (type/ave/delta) on step 1490600
  1 0.957224 0.012061 2916
  1 104.523 1.05378
SHAKE stats (type/ave/delta) on step 1490700
  1 0.957185 0.0116436 2916
  1 104.52 1.17122
SHAKE stats (type/ave/delta) on step 1490800
  1 0.957298 0.0117151 2916
  1 104.525 1.04234
SHAKE stats (type/ave/delta) on step 1490900
  1 0.957155 0.0117837 2916
  1 104.532 0.955668
SHAKE stats (type/ave/delta) on step 1491000
  1 0.957082 0.0124161 2916
  1 104.529 0.995879
 1491000    148.21672   -11057.803   -10188.771    27730.905    22406.916   -11057.803            0            0 
SHAKE stats (type/ave/delta) on step 1491100
  1 0.957228 0.012657 2916
  1 104.531 1.07479
SHAKE stats (type/ave/delta) on step 1491200
  1 0.957094 0.010944 2916
  1 104.518 1.01616
SHAKE stats (type/ave/delta) on step 1491300
  1 0.957188 0.0121882 2916
  1 104.517 1.05392
SHAKE stats (type/ave/delta) on step 1491400
  1 0.957122 0.0116658 2916
  1 104.538 1.07282
SHAKE stats (type/ave/delta) on step 1491500
  1 0.957099 0.0121505 2916
  1 104.51 1.00328
SHAKE stats (type/ave/delta) on step 1491600
  1 0.957336 0.0114693 2916
  1 104.522 1.0869
SHAKE stats (type/ave/delta) on step 1491700
  1 0.95712 0.0122858 2916
  1 104.527 1.04318
SHAKE stats (type/ave/delta) on step 1491800
  1 0.957145 0.0111462 2916
  1 104.526 1.04361
SHAKE stats (type/ave/delta) on step 1491900
  1 0.957167 0.0116339 2916
  1 104.524 1.08105
SHAKE stats (type/ave/delta) on step 1492000
  1 0.957135 0.0116017 2916
  1 104.517 1.00236
 1492000    147.81944    -11116.24   -10249.537    28152.937    22406.916    -11116.24            0            0 
SHAKE stats (type/ave/delta) on step 1492100
  1 0.957067 0.0124625 2916
  1 104.512 1.00408
SHAKE stats (type/ave/delta) on step 1492200
  1 0.957149 0.0118739 2916
  1 104.511 1.04856
SHAKE stats (type/ave/delta) on step 1492300
  1 0.957166 0.0112679 2916
  1 104.518 1.057
SHAKE stats (type/ave/delta) on step 1492400
  1 0.95718 0.0123059 2916
  1 104.514 1.12889
SHAKE stats (type/ave/delta) on step 1492500
  1 0.957169 0.0116315 2916
  1 104.511 1.00302
SHAKE stats (type/ave/delta) on step 1492600
  1 0.957132 0.0121662 2916
  1 104.524 0.983938
SHAKE stats (type/ave/delta) on step 1492700
  1 0.957247 0.0123749 2916
  1 104.502 1.18691
SHAKE stats (type/ave/delta) on step 1492800
  1 0.95716 0.0115961 2916
  1 104.507 1.19267
SHAKE stats (type/ave/delta) on step 1492900
  1 0.957228 0.0116181 2916
  1 104.528 1.0731
SHAKE stats (type/ave/delta) on step 1493000
  1 0.957174 0.0110543 2916
  1 104.518 1.0633
 1493000    141.23781   -11099.035   -10270.922    26890.573    22406.916   -11099.035            0            0 
SHAKE stats (type/ave/delta) on step 1493100
  1 0.957202 0.0117052 2916
  1 104.514 1.03247
SHAKE stats (type/ave/delta) on step 1493200
  1 0.957204 0.0118114 2916
  1 104.523 1.1226
SHAKE stats (type/ave/delta) on step 1493300
  1 0.957261 0.0123559 2916
  1 104.537 1.11989
SHAKE stats (type/ave/delta) on step 1493400
  1 0.957144 0.0118284 2916
  1 104.522 1.06484
SHAKE stats (type/ave/delta) on step 1493500
  1 0.957168 0.0112702 2916
  1 104.52 1.13332
SHAKE stats (type/ave/delta) on step 1493600
  1 0.957309 0.0109718 2916
  1 104.529 1.15168
SHAKE stats (type/ave/delta) on step 1493700
  1 0.957106 0.0116428 2916
  1 104.519 1.08892
SHAKE stats (type/ave/delta) on step 1493800
  1 0.957177 0.0113231 2916
  1 104.503 1.03494
SHAKE stats (type/ave/delta) on step 1493900
  1 0.957294 0.0123212 2916
  1 104.511 0.964476
SHAKE stats (type/ave/delta) on step 1494000
  1 0.957183 0.0119209 2916
  1 104.511 1.06868
 1494000    157.13385   -11131.038   -10209.722    25901.766    22406.916   -11131.038            0            0 
SHAKE stats (type/ave/delta) on step 1494100
  1 0.957322 0.0114841 2916
  1 104.523 1.04872
SHAKE stats (type/ave/delta) on step 1494200
  1 0.95714 0.0126205 2916
  1 104.522 1.15201
SHAKE stats (type/ave/delta) on step 1494300
  1 0.957199 0.0111915 2916
  1 104.522 1.09263
SHAKE stats (type/ave/delta) on step 1494400
  1 0.957212 0.0113784 2916
  1 104.522 1.17052
SHAKE stats (type/ave/delta) on step 1494500
  1 0.95724 0.012327 2916
  1 104.514 1.0597
SHAKE stats (type/ave/delta) on step 1494600
  1 0.957177 0.0115934 2916
  1 104.523 1.14146
SHAKE stats (type/ave/delta) on step 1494700
  1 0.957097 0.0111844 2916
  1 104.517 1.1494
SHAKE stats (type/ave/delta) on step 1494800
  1 0.957203 0.0117167 2916
  1 104.509 1.11379
SHAKE stats (type/ave/delta) on step 1494900
  1 0.957176 0.012474 2916
  1 104.521 1.00753
SHAKE stats (type/ave/delta) on step 1495000
  1 0.957147 0.0118203 2916
  1 104.53 1.10772
 1495000    151.89339    -11080.06    -10189.47    26241.081    22406.916    -11080.06            0            0 
SHAKE stats (type/ave/delta) on step 1495100
  1 0.957173 0.0114325 2916
  1 104.516 1.0713
SHAKE stats (type/ave/delta) on step 1495200
  1 0.957195 0.0112427 2916
  1 104.528 1.08615
SHAKE stats (type/ave/delta) on step 1495300
  1 0.957188 0.011747 2916
  1 104.533 1.12292
SHAKE stats (type/ave/delta) on step 1495400
  1 0.957124 0.0115806 2916
  1 104.534 1.06457
SHAKE stats (type/ave/delta) on step 1495500
  1 0.957275 0.0116927 2916
  1 104.524 1.26598
SHAKE stats (type/ave/delta) on step 1495600
  1 0.957194 0.011476 2916
  1 104.498 1.00148
SHAKE stats (type/ave/delta) on step 1495700
  1 0.957354 0.0121775 2916
  1 104.512 1.06809
SHAKE stats (type/ave/delta) on step 1495800
  1 0.957138 0.0118249 2916
  1 104.523 1.17182
SHAKE stats (type/ave/delta) on step 1495900
  1 0.957073 0.0116683 2916
  1 104.527 0.998254
SHAKE stats (type/ave/delta) on step 1496000
  1 0.957188 0.0109241 2916
  1 104.518 1.00951
 1496000    147.15207   -11081.095   -10218.306    26670.549    22406.916   -11081.095            0            0 
SHAKE stats (type/ave/delta) on step 1496100
  1 0.957242 0.0125818 2916
  1 104.543 0.963345
SHAKE stats (type/ave/delta) on step 1496200
  1 0.957147 0.0118643 2916
  1 104.51 1.26498
SHAKE stats (type/ave/delta) on step 1496300
  1 0.957237 0.0118709 2916
  1 104.532 1.10065
SHAKE stats (type/ave/delta) on step 1496400
  1 0.95715 0.0113059 2916
  1 104.523 1.02119
SHAKE stats (type/ave/delta) on step 1496500
  1 0.957245 0.0112733 2916
  1 104.517 0.956362
SHAKE stats (type/ave/delta) on step 1496600
  1 0.957282 0.0116244 2916
  1 104.526 0.987301
SHAKE stats (type/ave/delta) on step 1496700
  1 0.957091 0.0116369 2916
  1 104.512 1.08907
SHAKE stats (type/ave/delta) on step 1496800
  1 0.957047 0.0122078 2916
  1 104.531 1.14435
SHAKE stats (type/ave/delta) on step 1496900
  1 0.957202 0.0109733 2916
  1 104.522 0.943663
SHAKE stats (type/ave/delta) on step 1497000
  1 0.957209 0.012153 2916
  1 104.522 1.05618
 1497000    151.77672   -11040.766   -10150.861    26682.202    22406.916   -11040.766            0            0 
SHAKE stats (type/ave/delta) on step 1497100
  1 0.957225 0.0115363 2916
  1 104.52 1.05464
SHAKE stats (type/ave/delta) on step 1497200
  1 0.957266 0.0117479 2916
  1 104.519 1.10502
SHAKE stats (type/ave/delta) on step 1497300
  1 0.957127 0.0116944 2916
  1 104.511 1.0749
SHAKE stats (type/ave/delta) on step 1497400
  1 0.957239 0.0119452 2916
  1 104.533 1.02748
SHAKE stats (type/ave/delta) on step 1497500
  1 0.957124 0.0119903 2916
  1 104.526 1.09555
SHAKE stats (type/ave/delta) on step 1497600
  1 0.957298 0.0125034 2916
  1 104.524 1.10261
SHAKE stats (type/ave/delta) on step 1497700
  1 0.957246 0.0119706 2916
  1 104.541 1.09891
SHAKE stats (type/ave/delta) on step 1497800
  1 0.957229 0.0119372 2916
  1 104.526 1.18993
SHAKE stats (type/ave/delta) on step 1497900
  1 0.957258 0.0119313 2916
  1 104.525 1.0345
SHAKE stats (type/ave/delta) on step 1498000
  1 0.957164 0.0115367 2916
  1 104.519 1.0807
 1498000    148.05119   -11088.658   -10220.596    26438.396    22406.916   -11088.658            0            0 
SHAKE stats (type/ave/delta) on step 1498100
  1 0.957233 0.0109235 2916
  1 104.53 0.981995
SHAKE stats (type/ave/delta) on step 1498200
  1 0.957151 0.0124535 2916
  1 104.532 1.08791
SHAKE stats (type/ave/delta) on step 1498300
  1 0.957208 0.0117807 2916
  1 104.512 0.973985
SHAKE stats (type/ave/delta) on step 1498400
  1 0.957237 0.0123865 2916
  1 104.513 1.03689
SHAKE stats (type/ave/delta) on step 1498500
  1 0.957122 0.0111273 2916
  1 104.542 1.17278
SHAKE stats (type/ave/delta) on step 1498600
  1 0.957355 0.0117731 2916
  1 104.533 1.00149
SHAKE stats (type/ave/delta) on step 1498700
  1 0.957224 0.012244 2916
  1 104.529 1.14174
SHAKE stats (type/ave/delta) on step 1498800
  1 0.957155 0.0126675 2916
  1 104.501 1.08073
SHAKE stats (type/ave/delta) on step 1498900
  1 0.957182 0.0121156 2916
  1 104.521 1.04228
SHAKE stats (type/ave/delta) on step 1499000
  1 0.957081 0.0113007 2916
  1 104.515 1.14033
 1499000     151.6236   -11095.504   -10206.496    27295.997    22406.916   -11095.504            0            0 
SHAKE stats (type/ave/delta) on step 1499100
  1 0.95727 0.0113262 2916
  1 104.504 1.0665
SHAKE stats (type/ave/delta) on step 1499200
  1 0.957006 0.0117325 2916
  1 104.526 1.13568
SHAKE stats (type/ave/delta) on step 1499300
  1 0.95712 0.0109128 2916
  1 104.515 0.944522
SHAKE stats (type/ave/delta) on step 1499400
  1 0.957242 0.012632 2916
  1 104.522 1.06044
SHAKE stats (type/ave/delta) on step 1499500
  1 0.957153 0.0132019 2916
  1 104.526 1.04429
SHAKE stats (type/ave/delta) on step 1499600
  1 0.957197 0.0111719 2916
  1 104.532 1.06812
SHAKE stats (type/ave/delta) on step 1499700
  1 0.957191 0.0108408 2916
  1 104.517 1.07886
SHAKE stats (type/ave/delta) on step 1499800
  1 0.957074 0.0118052 2916
  1 104.503 1.13225
SHAKE stats (type/ave/delta) on step 1499900
  1 0.95722 0.0116158 2916
  1 104.526 1.08945
SHAKE stats (type/ave/delta) on step 1500000
  1 0.957064 0.011574 2916
  1 104.508 1.15301
 1500000    149.83911   -11122.427   -10243.883    27301.548    22406.916   -11122.427            0            0 
Loop time of 37828.5 on 2 procs for 1000000 steps with 2454 atoms

Performance: 2.284 ns/day, 10.508 hours/ns, 26.435 timesteps/s
81.3% CPU use with 2 MPI tasks x no OpenMP threads

MPI task timing breakdown:
Section |  min time  |  avg time  |  max time  |%varavg| %total
---------------------------------------------------------------
Pair    | 2311       | 13793      | 25275      |9776.5 | 36.46
Bond    | 3.682      | 4.1066     | 4.5312     |  21.0 |  0.01
Kspace  | 7859.9     | 18842      | 29823      |8000.4 | 49.81
Neigh   | 2049.9     | 2052.1     | 2054.4     |   4.9 |  5.42
Comm    | 1365.1     | 1839.1     | 2313.1     |1105.3 |  4.86
Output  | 2.1541     | 2.4108     | 2.6675     |  16.5 |  0.01
Modify  | 663.16     | 907.41     | 1151.7     | 810.8 |  2.40
Other   |            | 389        |            |       |  1.03

Nlocal:    1227 ave 1739 max 715 min
Histogram: 1 0 0 0 0 0 0 0 0 1
Nghost:    7357 ave 7785 max 6929 min
Histogram: 1 0 0 0 0 0 0 0 0 1
Neighs:    290313 ave 532009 max 48617 min
Histogram: 1 0 0 0 0 0 0 0 0 1

Total # of neighbors = 580626
Ave neighs/atom = 236.604
Ave special neighs/atom = 1.18826
Neighbor list builds = 30630
Dangerous builds = 1
System init for write_data ...
PPPM initialization ...
  G vector (1/distance) = 0.319096
  grid = 15 15 30
  stencil order = 5
  estimated absolute RMS force accuracy = 0.0281203
  estimated relative force accuracy = 8.46836e-05
  using double precision FFTs
  3d grid and FFT values/proc = 10648 3375
WARNING: Neighbor exclusions used with KSpace solver may give inconsistent Coulombic energies (../neighbor.cpp:461)
Total wall time: 15:33:07
