LAMMPS data file via write_data, version 16 Feb 2016, timestep = 1500000

2454 atoms
5 atom types
972 bonds
1 bond types
486 angles
1 angle types

-1.0627383967674016e+01 1.0627383967674016e+01 xlo xhi
-9.9115525296072580e+00 9.9115525296072580e+00 ylo yhi
1.3409651161348243e+01 6.6590348838657263e+01 zlo zhi

Masses

1 12
2 12
3 12
4 15.9994
5 1.008

Atoms # full

1630 716 4 -1.1794000000000000e+00 -1.0304596867145852e+01 -8.0346425280781073e+00 1.7217548741399440e+01 0 -1 6
1631 716 5 5.8970000000000000e-01 -1.0169626529934686e+01 -7.0997740756870300e+00 1.7358243759896901e+01 0 -1 6
1135 551 4 -1.1794000000000000e+00 -7.2896000554969911e+00 -7.3291947544696798e+00 1.6039984210337828e+01 -2 -1 4
1137 551 5 5.8970000000000000e-01 -7.7966213418425054e+00 -6.7503271448592388e+00 1.5469668243958653e+01 -2 -1 4
1136 551 5 5.8970000000000000e-01 -7.6295566139105206e+00 -8.2014771613114306e+00 1.5857732434912529e+01 -2 -1 4
1632 716 5 5.8970000000000000e-01 -1.0450082069688159e+01 -8.1124884827213819e+00 1.6277612547125148e+01 0 -1 6
1820 779 5 5.8970000000000000e-01 -8.7169539563626550e+00 -4.3621376059269572e+00 1.5536192272001227e+01 1 -1 5
1819 779 4 -1.1794000000000000e+00 -8.0985201710491257e+00 -4.9757177138639470e+00 1.5137827425527842e+01 1 -1 5
1821 779 5 5.8970000000000000e-01 -8.1908142963589441e+00 -4.8202756962031543e+00 1.4199917629424139e+01 1 -1 5
1800 772 5 5.8970000000000000e-01 -6.6440291008928343e+00 -4.9948932188080049e+00 1.6130299083739093e+01 -1 -1 5
1798 772 4 -1.1794000000000000e+00 -5.7471685603160232e+00 -4.6958706838194662e+00 1.6261972957542376e+01 -1 -1 5
1257 591 5 5.8970000000000000e-01 -5.9207327613290293e+00 -9.8433146198682753e+00 1.7811638465390249e+01 -2 -2 6
2201 906 5 5.8970000000000000e-01 -1.0019493644640090e+01 -4.9413379515596052e+00 1.8235772609421698e+01 -3 -1 5
2200 906 4 -1.1794000000000000e+00 -9.6060641217944980e+00 -5.4964931755592881e+00 1.7574996064125685e+01 -3 -1 5
2202 906 5 5.8970000000000000e-01 -8.9212410968399656e+00 -4.9468492498574372e+00 1.7196593841844315e+01 -3 -1 5
2262 926 5 5.8970000000000000e-01 -7.9134613066818638e+00 -9.2231571886853772e+00 1.4113820136087917e+01 1 -1 6
1799 772 5 5.8970000000000000e-01 -5.5163982258427389e+00 -4.2445944201621471e+00 1.5453212100436167e+01 -1 -1 5
1658 725 5 5.8970000000000000e-01 -1.0386240774156116e+01 -7.5654666968510442e+00 1.3959136164525283e+01 -1 -1 6
2185 901 4 -1.1794000000000000e+00 -7.9271693010595143e+00 -9.8213317562095419e+00 1.5752983206239261e+01 -1 0 4
1476 664 5 5.8970000000000000e-01 -9.6061237992723427e+00 -9.4809796118636029e+00 1.8065500063835035e+01 0 1 4
1019 512 5 5.8970000000000000e-01 -7.2269173769242556e+00 -7.2201183089852154e+00 1.7774057758355006e+01 -2 -3 5
1018 512 4 -1.1794000000000000e+00 -7.3864283765133019e+00 -6.8365699778059374e+00 1.8638944867362579e+01 -2 -3 5
2216 911 5 5.8970000000000000e-01 -5.2728763233744633e+00 -7.1515911742724194e+00 1.5927144394251380e+01 0 0 5
2327 948 5 5.8970000000000000e-01 -5.1251256868824582e+00 -5.4324987961765618e+00 1.7745693032933278e+01 -1 -2 4
2217 911 5 5.8970000000000000e-01 -4.1434864595593286e+00 -6.2854168146797429e+00 1.5413931129210837e+01 0 0 5
2215 911 4 -1.1794000000000000e+00 -4.3602286072959844e+00 -7.1893309593045345e+00 1.5639701677693875e+01 0 0 5
1981 833 4 -1.1794000000000000e+00 -1.4805415007370395e+00 -6.9034485011076194e+00 1.5106471406594366e+01 -1 1 6
1908 808 5 5.8970000000000000e-01 -3.4413635095429806e+00 -8.3936479230013230e+00 1.7943594944787034e+01 0 -1 5
1906 808 4 -1.1794000000000000e+00 -2.7928004854355546e+00 -8.5408892059653638e+00 1.7250715107828839e+01 0 -1 5
1907 808 5 5.8970000000000000e-01 -3.2088861606487828e+00 -8.1940469402538074e+00 1.6458134450385558e+01 0 -1 5
2265 927 5 5.8970000000000000e-01 -1.3596256733429257e+00 -6.1717394415280005e+00 1.6774054242593483e+01 0 -1 5
1812 776 5 5.8970000000000000e-01 -1.3248660321064987e+00 -8.3340190993040011e+00 1.7424041594517771e+01 0 -2 4
1810 776 4 -1.1794000000000000e+00 -4.3983610879396273e-01 -8.2721332404125310e+00 1.7791852404159599e+01 0 -2 4
1983 833 5 5.8970000000000000e-01 -1.9225893723239176e+00 -7.6923695680222712e+00 1.4784776024241800e+01 -1 1 6
2328 948 5 5.8970000000000000e-01 -3.8747665449097450e+00 -4.9445658977168776e+00 1.8445995017480300e+01 -1 -2 4
1982 833 5 5.8970000000000000e-01 -9.9926718141226978e-01 -6.5762338438406056e+00 1.4348126852635778e+01 -1 1 6
2263 927 4 -1.1794000000000000e+00 -1.3292853837441940e+00 -5.4948857643996778e+00 1.7449618656449019e+01 0 -1 5
2264 927 5 5.8970000000000000e-01 -9.8463237812704685e-01 -4.7198960636494052e+00 1.7010806746671093e+01 0 -1 5
1886 801 5 5.8970000000000000e-01 -2.4521402224814031e+00 -5.5356120697125730e+00 1.5088780496851699e+01 -1 -1 7
1885 801 4 -1.1794000000000000e+00 -2.8828972656568754e+00 -4.6885255258911593e+00 1.4946075473890325e+01 -1 -1 7
1034 517 5 5.8970000000000000e-01 -3.3229485224795727e+00 -9.5084885114080819e+00 1.4172541279296166e+01 -2 -3 4
2326 948 4 -1.1794000000000000e+00 -4.6446817598280337e+00 -5.4950752619891228e+00 1.8572788906901113e+01 -1 -2 4
1887 801 5 5.8970000000000000e-01 -2.3410601736647569e+00 -4.2452007284485545e+00 1.4296747759173247e+01 -1 -1 7
1520 679 5 5.8970000000000000e-01 -5.0076549972641855e+00 -7.8718348295520792e+00 1.4188833577660182e+01 -1 -1 6
2025 847 5 5.8970000000000000e-01 -4.4865635895304123e+00 -3.6016751417856194e+00 1.7036998446193859e+01 -1 0 6
1033 517 4 -1.1794000000000000e+00 -2.6429807937147105e+00 -8.9459642157358665e+00 1.3798046885128299e+01 -2 -3 4
2229 915 5 5.8970000000000000e-01 -1.4013212767719629e-01 -9.8840740678924934e+00 1.4183060667495386e+01 -1 -1 6
2024 847 5 5.8970000000000000e-01 -3.1911414378704097e+00 -3.7628629547971184e+00 1.6271113311828898e+01 -1 0 6
1811 776 5 5.8970000000000000e-01 -5.0059628209101514e-01 -8.7162228299999143e+00 1.8634077461474799e+01 0 -2 4
1662 726 5 5.8970000000000000e-01 -5.0062935784721105e+00 -3.5956022725308254e+00 1.3502131392753206e+01 -1 0 6
1035 517 5 5.8970000000000000e-01 -1.9614090094866805e+00 -9.5511362324248950e+00 1.3511024173631547e+01 -2 -3 4
1493 670 5 5.8970000000000000e-01 2.2953401449074103e-02 -8.5026967276663559e+00 1.6107734724763752e+01 -4 -4 4
1030 516 4 -1.1794000000000000e+00 2.2428822303153608e+00 -7.8992506642986982e+00 1.8000400726100349e+01 -1 -1 4
2340 952 5 5.8970000000000000e-01 3.5174012718687897e+00 -5.7251122302976087e+00 1.7092197077582082e+01 -1 -1 5
2339 952 5 5.8970000000000000e-01 3.9143077038514438e+00 -6.5877954797057061e+00 1.5917531004211808e+01 -1 -1 5
1492 670 4 -1.1794000000000000e+00 5.1984915280138411e-01 -8.9798424063594879e+00 1.5441820764141005e+01 -4 -4 4
2180 899 5 5.8970000000000000e-01 1.9359570326519744e+00 -7.9975556697864363e+00 1.5044600410852652e+01 -1 -1 5
2179 899 4 -1.1794000000000000e+00 2.7960145322792824e+00 -7.5919736568379816e+00 1.4920230712039121e+01 -1 -1 5
2338 952 4 -1.1794000000000000e+00 4.2841661024945941e+00 -6.0690681819861050e+00 1.6629994212741682e+01 -1 -1 5
1261 593 4 -1.1794000000000000e+00 2.1010257658530094e+00 -4.8293348204817512e+00 1.7713595008667884e+01 -1 -1 6
1494 670 5 5.8970000000000000e-01 8.6830471611646998e-01 -9.7402509424246269e+00 1.5903351015669928e+01 -4 -4 4
1386 634 5 5.8970000000000000e-01 3.2884428834340795e+00 -9.1197691983727047e+00 1.7315097200777963e+01 -3 -2 5
2181 899 5 5.8970000000000000e-01 3.3900913410110647e+00 -8.3306721302381632e+00 1.4787161933475463e+01 -1 -1 5
1263 593 5 5.8970000000000000e-01 1.9247521896481341e+00 -4.7669481787381507e+00 1.6777136602878247e+01 -1 -1 6
1611 709 5 5.8970000000000000e-01 1.8440381963269552e+00 -5.3457325980778858e+00 1.4560964917601837e+01 -2 -1 4
1609 709 4 -1.1794000000000000e+00 1.7220176129071922e+00 -4.6181307990677976e+00 1.5166122418918420e+01 -2 -1 4
1031 516 5 5.8970000000000000e-01 1.3026186505046080e+00 -7.9271298236933019e+00 1.7835257170744644e+01 -1 -1 4
1089 535 5 5.8970000000000000e-01 4.7768591368338909e+00 -4.7300903416176965e+00 1.5927617690103126e+01 -3 -2 3
1333 617 4 -1.1794000000000000e+00 5.1664521420587866e+00 -8.1227337799960075e+00 1.8341736388731814e+01 -3 -2 5
1335 617 5 5.8970000000000000e-01 4.3619735695701571e+00 -7.6739182571222599e+00 1.8068300549458762e+01 -3 -2 5
1262 593 5 5.8970000000000000e-01 2.1398294108173816e+00 -3.9220575574980838e+00 1.8015097712013294e+01 -1 -1 6
1610 709 5 5.8970000000000000e-01 1.7933607886104321e+00 -3.8375811536335909e+00 1.4618037665716287e+01 -2 -1 4
1385 634 5 5.8970000000000000e-01 4.1900973822673873e+00 -9.7337934849931180e+00 1.6269334999942881e+01 -3 -2 5
1441 653 4 -1.1794000000000000e+00 5.0556976768918505e+00 -9.2039668079403008e+00 1.4931269386509442e+01 -2 -1 6
1337 618 5 5.8970000000000000e-01 2.2722834852163604e-01 -3.5160775162666065e+00 1.5598245430596998e+01 0 -2 5
1087 535 4 -1.1794000000000000e+00 5.2122787553335135e+00 -3.9270467559785125e+00 1.5640275219416491e+01 -3 -2 3
1657 725 4 -1.1794000000000000e+00 1.0449326261095155e+01 -8.1141302846227958e+00 1.4619926988619262e+01 -2 -1 6
1715 744 5 5.8970000000000000e-01 6.8019556038216189e+00 -5.3798652362565020e+00 1.8194765909169707e+01 -3 0 3
1913 810 5 5.8970000000000000e-01 6.4592512546393053e+00 -4.4104794246142101e+00 1.4764252374770612e+01 -2 -2 6
1914 810 5 5.8970000000000000e-01 7.7891913387840663e+00 -5.0944185844969621e+00 1.4951472784748477e+01 -2 -2 6
1912 810 4 -1.1794000000000000e+00 7.2743303300743269e+00 -4.6087123021088896e+00 1.4308198702677839e+01 -2 -2 6
1723 747 4 -1.1794000000000000e+00 7.3857285258582417e+00 -8.3102055747697072e+00 1.6162224123083952e+01 -1 -1 5
2359 959 4 -1.1794000000000000e+00 8.7326645072324744e+00 -6.0815792798197492e+00 1.5985224997034823e+01 1 -2 6
1695 737 5 5.8970000000000000e-01 8.1189459616799020e+00 -8.4682262099006351e+00 1.7705928882137140e+01 -1 -1 5
2360 959 5 5.8970000000000000e-01 8.0361206904013507e+00 -6.7324462197938866e+00 1.6073107406910776e+01 1 -2 6
1724 747 5 5.8970000000000000e-01 6.4306817189880237e+00 -8.3142111980854132e+00 1.6058458609961313e+01 -1 -1 5
2361 959 5 5.8970000000000000e-01 9.4589889277250343e+00 -6.5580718965081575e+00 1.5574877362160828e+01 1 -2 6
2012 843 5 5.8970000000000000e-01 9.1419205190188038e+00 -4.5220555982213142e+00 1.6501086265282339e+01 -1 -2 6
1659 725 5 5.8970000000000000e-01 9.6120702317287829e+00 -8.3584938849425257e+00 1.4231258302063784e+01 -2 -1 6
1714 744 4 -1.1794000000000000e+00 7.0246066045346911e+00 -6.1965793977815542e+00 1.8634865786491005e+01 -3 0 3
1694 737 5 5.8970000000000000e-01 9.6019152028184713e+00 -8.4744014189100962e+00 1.8014401002439033e+01 -1 -1 5
2011 843 4 -1.1794000000000000e+00 9.3422373271115173e+00 -3.6094563672999627e+00 1.6720452677368957e+01 -1 -2 6
1725 747 5 5.8970000000000000e-01 7.6472030246997678e+00 -9.2087237290168353e+00 1.5957708270064650e+01 -1 -1 5
1334 617 5 5.8970000000000000e-01 5.8430893806668935e+00 -7.4476578647185425e+00 1.8303096426932523e+01 -3 -2 5
2013 843 5 5.8970000000000000e-01 1.0271104878942475e+01 -3.5096812287708774e+00 1.6525136971499062e+01 -1 -2 6
1693 737 4 -1.1794000000000000e+00 8.7545709154328790e+00 -8.7061322863279873e+00 1.8388703372151234e+01 -1 -1 5
1442 653 5 5.8970000000000000e-01 5.3692553334794892e+00 -8.7541527289864192e+00 1.4146750431637814e+01 -2 -1 6
1088 535 5 5.8970000000000000e-01 5.6884088845747645e+00 -3.6246468518768786e+00 1.6416447842734165e+01 -3 -2 3
1408 642 4 -1.1794000000000000e+00 6.3618281660012270e+00 -3.6345296185339402e+00 1.8193846706723317e+01 -1 -2 5
2376 964 5 5.8970000000000000e-01 5.9798533059988888e+00 -9.7102237890963536e+00 1.8273050664903110e+01 0 0 5
2065 861 4 -1.1794000000000000e+00 -9.4758682319694163e+00 -2.8581038631591671e+00 1.6230000217550817e+01 -1 0 4
1628 715 5 5.8970000000000000e-01 -6.5651092633460655e+00 -2.9094420969771941e+00 1.8706451132316801e+01 -2 -1 5
1270 596 4 -1.1794000000000000e+00 -8.8081445172482447e+00 2.4909204141566441e+00 1.3498821077736560e+01 -2 0 6
2380 966 4 -1.1794000000000000e+00 -6.6751861141158022e+00 -5.5871427474669839e-02 1.3901003919073739e+01 -1 -2 5
2067 861 5 5.8970000000000000e-01 -8.7921739303618835e+00 -2.3600854888927087e+00 1.5787827972821086e+01 -1 0 4
1592 703 5 5.8970000000000000e-01 -1.0093921210378232e+01 2.1432268376306338e-02 1.4816312174332813e+01 0 -2 6
2047 855 4 -1.1794000000000000e+00 -8.9684502189631026e+00 9.0884986105250543e-01 1.5667186686515191e+01 -1 -2 6
1926 814 5 5.8970000000000000e-01 -6.6916116900460985e+00 -2.0930196209353027e+00 1.6584659566079985e+01 -1 -2 5
1924 814 4 -1.1794000000000000e+00 -7.0995207992040763e+00 -1.9266909965517598e+00 1.5739501670358464e+01 -1 -2 5
1955 824 5 5.8970000000000000e-01 -9.1210699450407038e+00 -7.1785761080226329e-01 1.8480009183112450e+01 -2 -1 4
1890 802 5 5.8970000000000000e-01 -7.0645119344445177e+00 4.6197860718026412e-01 1.8147492212932889e+01 -1 -2 5
1954 824 4 -1.1794000000000000e+00 -9.8789684648763600e+00 -1.2344773356666212e+00 1.8212141140429779e+01 -2 -1 4
2066 861 5 5.8970000000000000e-01 -9.6783865691370838e+00 -2.3395104361454258e+00 1.7006745157190529e+01 -1 0 4
2049 855 5 5.8970000000000000e-01 -8.8592366950425347e+00 1.5274448610197653e+00 1.4945130781392589e+01 -1 -2 6
2048 855 5 5.8970000000000000e-01 -8.1202043738679954e+00 9.0911999396852405e-01 1.6107094461554155e+01 -1 -2 6
1925 814 5 5.8970000000000000e-01 -6.5144435403073073e+00 -2.3357216763736424e+00 1.5101165858763936e+01 -1 -2 5
2390 969 5 5.8970000000000000e-01 -6.6720314217920302e+00 2.2893228879917049e+00 1.6823438569035194e+01 1 -1 4
2389 969 4 -1.1794000000000000e+00 -6.6605931100816722e+00 1.3332990834112817e+00 1.6735350969895023e+01 1 -1 4
2382 966 5 5.8970000000000000e-01 -7.0533228722665733e+00 -3.7517509533426052e-01 1.4717798827070165e+01 -1 -2 5
2391 969 5 5.8970000000000000e-01 -5.7511335762132116e+00 1.1231050072928754e+00 1.6540209262366790e+01 1 -1 4
1627 715 4 -1.1794000000000000e+00 -6.1497189767609628e+00 -2.1970612892071291e+00 1.8221007518918949e+01 -2 -1 5
1956 824 5 5.8970000000000000e-01 -1.0513253263326920e+01 -5.8451277950145153e-01 1.7901570477908376e+01 -2 -1 4
1816 778 4 -1.1794000000000000e+00 -5.7691419621628421e+00 2.3532875518032168e+00 1.4170524492296254e+01 -1 -3 5
1818 778 5 5.8970000000000000e-01 -6.2911176894183587e+00 1.5624902820791311e+00 1.4027489572662210e+01 -1 -3 5
1023 513 5 5.8970000000000000e-01 -9.0263472459337208e+00 3.1635931156609418e+00 1.7698389532641286e+01 -2 -1 5
1853 790 5 5.8970000000000000e-01 -1.0572537309861755e+01 2.8357706512380223e+00 1.5763262411721065e+01 -1 -1 6
1854 790 5 5.8970000000000000e-01 -1.0492613444325242e+01 2.4464737826451679e+00 1.4305820910299808e+01 -1 -1 6
1889 802 5 5.8970000000000000e-01 -7.0665854616909494e+00 -9.9339893251518308e-01 1.8588756825888282e+01 -1 -2 5
1172 563 5 5.8970000000000000e-01 -1.0013809126551134e+01 -2.0341042023878586e+00 1.3808192892697789e+01 -2 -2 6
1660 726 4 -1.1794000000000000e+00 -5.2959684661233677e+00 -3.0599949851300456e+00 1.4237480294474524e+01 -1 0 6
1661 726 5 5.8970000000000000e-01 -4.7735906229725105e+00 -2.2594933806965050e+00 1.4172441954365397e+01 -1 0 6
1336 618 4 -1.1794000000000000e+00 -3.9934351828774045e-01 -3.3027223577233191e+00 1.6288031290707909e+01 0 -2 5
2110 876 4 -1.1794000000000000e+00 -3.9974736854753061e+00 -7.5008516405412962e-01 1.3745775900569955e+01 0 -1 5
1131 549 5 5.8970000000000000e-01 -3.4379748410442690e+00 2.3990423054086909e+00 1.6312215834630155e+01 -1 -1 4
1129 549 4 -1.1794000000000000e+00 -4.0010217164910573e+00 1.6995524339712818e+00 1.5983351202127530e+01 -1 -1 4
1776 764 5 5.8970000000000000e-01 -3.7081909034357241e+00 -1.4863280055843489e+00 1.6901705353941729e+01 -2 1 6
1774 764 4 -1.1794000000000000e+00 -3.6828738582888469e+00 -5.8733212121276601e-01 1.7232339912088861e+01 -2 1 6
1775 764 5 5.8970000000000000e-01 -2.9611725722002267e+00 -5.9168720659412877e-01 1.7863482447517775e+01 -2 1 6
1130 549 5 5.8970000000000000e-01 -3.7865032335315241e+00 9.4117500716021552e-01 1.6533652045527532e+01 -1 -1 4
2023 847 4 -1.1794000000000000e+00 -3.5718455242929639e+00 -3.3034588889532746e+00 1.7020641176728379e+01 -1 0 6
1338 618 5 5.8970000000000000e-01 -9.4762777267162646e-01 -2.6115734626679319e+00 1.5916738106491255e+01 0 -2 5
2051 856 5 5.8970000000000000e-01 -4.5858338012304112e-01 -2.9650314517632452e+00 1.7922151207218374e+01 -1 -1 5
1767 761 5 5.8970000000000000e-01 -1.5477670163843498e+00 -6.6148442332652579e-01 1.5711776717216578e+01 0 -1 4
1765 761 4 -1.1794000000000000e+00 -1.6950396167943962e+00 -1.3706113619333435e+00 1.5089034559335131e+01 0 -1 4
1717 745 4 -1.1794000000000000e+00 -9.5235292939182714e-01 6.7803499815313062e-01 1.6824935119559434e+01 -2 -3 5
1766 761 5 5.8970000000000000e-01 -2.5288125608502026e+00 -1.1625993249691138e+00 1.4676223868429588e+01 0 -1 4
1817 778 5 5.8970000000000000e-01 -5.1137194700026622e+00 2.0981929027901129e+00 1.4824861597495481e+01 -1 -3 5
1719 745 5 5.8970000000000000e-01 -4.4019801385964830e-01 1.4832313475892671e+00 1.6752754119242688e+01 -2 -3 5
1718 745 5 5.8970000000000000e-01 -1.2955059363337191e+00 6.8333727083012852e-01 1.7723576469696237e+01 -2 -3 5
2234 917 5 5.8970000000000000e-01 -2.5655856866023927e+00 2.8068510337109833e+00 1.8106413813763901e+01 -2 -1 5
2219 912 5 5.8970000000000000e-01 -2.2375123648550548e+00 1.3572957276940525e+00 1.4841901400219369e+01 -2 -1 6
2111 876 5 5.8970000000000000e-01 -4.8540473005621152e+00 -3.4327761039208032e-01 1.3860831246689836e+01 0 -1 5
1545 687 5 5.8970000000000000e-01 -1.0100007796644217e+00 2.9824007989155668e+00 1.4096258924456420e+01 -2 -1 6
2232 916 5 5.8970000000000000e-01 -1.3762755200527657e-01 6.2911428235492239e-01 1.4177565861428892e+01 -1 1 6
2218 912 4 -1.1794000000000000e+00 -1.8032937532602795e+00 1.6217248722836684e+00 1.4034284824503525e+01 -2 -1 6
2050 856 4 -1.1794000000000000e+00 -2.6327877255290244e-01 -2.4816945675474016e+00 1.8723364362312402e+01 -1 -1 5
1934 817 5 5.8970000000000000e-01 -1.4171471218054321e+00 -2.5449417471344402e+00 1.3777214548087333e+01 -1 -1 6
2442 986 5 5.8970000000000000e-01 -4.4359451811079431e+00 3.8918705732180919e-01 1.8426025866252314e+01 -1 -1 6
1629 715 5 5.8970000000000000e-01 -5.2271868186485735e+00 -2.2481689006122090e+00 1.8458149998754845e+01 -2 -1 5
2220 912 5 5.8970000000000000e-01 -2.5234611992498865e+00 1.7704257572562503e+00 1.3420937150308113e+01 -2 -1 6
1995 837 5 5.8970000000000000e-01 1.3266814891459560e+00 -2.4121535402960423e-01 1.5361101019038520e+01 -1 -1 4
1959 825 5 5.8970000000000000e-01 2.0438979501106069e+00 -1.5246738176051013e+00 1.7393124939316543e+01 0 0 4
1366 628 4 -1.1794000000000000e+00 4.9572399812182173e+00 -1.4501027711083776e+00 1.7413644102831864e+01 0 -2 6
1958 825 5 5.8970000000000000e-01 3.3553123285244300e+00 -1.9840634642602122e+00 1.8004146513302945e+01 0 0 4
1957 825 4 -1.1794000000000000e+00 2.4166985944619133e+00 -2.1648176186595087e+00 1.8002684133732970e+01 0 0 4
1946 821 5 5.8970000000000000e-01 3.6667317060336697e+00 -1.0302575231607483e+00 1.5519575267922555e+01 -2 1 3
2343 953 5 5.8970000000000000e-01 4.8112710046658602e+00 1.9310567910062515e+00 1.6020855350701506e+01 0 -3 5
2341 953 4 -1.1794000000000000e+00 4.4731105442801580e+00 1.0415795788860247e+00 1.5899309848514699e+01 0 -3 5
2342 953 5 5.8970000000000000e-01 5.2529572008446674e+00 4.8885624868124444e-01 1.5852658346080130e+01 0 -3 5
1071 529 5 5.8970000000000000e-01 3.1701011523402864e+00 5.0549922804974035e-01 1.7505383604800748e+01 -2 -2 4
1945 821 4 -1.1794000000000000e+00 3.8627127442681117e+00 -1.6463928956555895e+00 1.4811854768285741e+01 -2 1 3
1993 837 4 -1.1794000000000000e+00 1.5900412211238657e+00 -4.3871082218391583e-01 1.6262550190265788e+01 -1 -1 4
1994 837 5 5.8970000000000000e-01 1.0102535199344793e+00 9.5028496427961837e-02 1.6802166343700161e+01 -1 -1 4
1951 823 4 -1.1794000000000000e+00 4.6677567319434665e-01 2.7981391517837335e+00 1.6645894335654091e+01 -2 -1 5
1069 529 4 -1.1794000000000000e+00 3.1113387142758047e+00 9.4132025183153745e-01 1.8356975649544179e+01 -2 -2 4
1947 821 5 5.8970000000000000e-01 4.3556663398261550e+00 -2.3523387246805143e+00 1.5232586774425071e+01 -2 1 3
1070 529 5 5.8970000000000000e-01 3.0755339777612978e+00 1.8772519176412279e+00 1.8145279654366046e+01 -2 -2 4
1952 823 5 5.8970000000000000e-01 1.3977123237481148e+00 3.0210696558798467e+00 1.6653159949817692e+01 -2 -1 5
1283 600 5 5.8970000000000000e-01 2.4194080165573206e+00 -1.9831846254268486e+00 1.4172420762701529e+01 -2 -2 6
2021 846 5 5.8970000000000000e-01 3.3012484906459876e+00 1.6371941719636152e+00 1.4846421291619615e+01 -1 -1 5
1121 546 5 5.8970000000000000e-01 4.9531255948902899e+00 1.1942668933736009e+00 1.8341060798925305e+01 -2 0 6
2052 856 5 5.8970000000000000e-01 6.6216885200444031e-01 -2.2603402150730547e+00 1.8649549409748566e+01 -1 -1 5
2230 916 4 -1.1794000000000000e+00 6.8396140548471640e-01 2.2838254559823959e-01 1.3896565665592936e+01 -1 1 6
2020 846 4 -1.1794000000000000e+00 2.7767735226553776e+00 2.0486978949771335e+00 1.4157621312416673e+01 -1 -1 5
2022 846 5 5.8970000000000000e-01 1.9322990036661412e+00 1.5989235065417193e+00 1.4193591454010059e+01 -1 -1 5
1282 600 4 -1.1794000000000000e+00 1.5693877353521559e+00 -2.2877339000834276e+00 1.3848692456409207e+01 -2 -2 6
1284 600 5 5.8970000000000000e-01 9.8197420007932301e-01 -1.5395955207118246e+00 1.3970284745044937e+01 -2 -2 6
1967 828 5 5.8970000000000000e-01 8.9041574633314102e+00 3.0431541623357763e+00 1.3866517218366880e+01 -1 0 4
1591 703 4 -1.1794000000000000e+00 1.0550058802250222e+01 -5.3419606522097340e-01 1.4336588686594785e+01 -1 -2 6
2418 978 5 5.8970000000000000e-01 1.0578091142625659e+01 9.3100143909601540e-01 1.6570966818925342e+01 -1 -1 4
1076 531 5 5.8970000000000000e-01 8.9390731499466369e+00 -2.8393460526179202e+00 1.8415202931496918e+01 -3 0 4
1367 628 5 5.8970000000000000e-01 5.5877852815534483e+00 -8.3590723663397470e-01 1.7030968551184827e+01 0 -2 6
1368 628 5 5.8970000000000000e-01 5.4966609015250274e+00 -2.0911309012531700e+00 1.7868674509408308e+01 0 -2 6
1581 699 5 5.8970000000000000e-01 7.3853154164888553e+00 9.7305714509225216e-01 1.6157575078050851e+01 -1 -1 5
1579 699 4 -1.1794000000000000e+00 6.8834629484371961e+00 1.5758109546696925e-01 1.6169685750631409e+01 -1 -1 5
2417 978 5 5.8970000000000000e-01 1.0248876271246584e+01 1.4279607783810726e+00 1.7967619550288727e+01 -1 -1 4
1580 699 5 5.8970000000000000e-01 7.4939442485163852e+00 -4.9847049510608865e-01 1.5838691193448012e+01 -1 -1 5
1112 543 5 5.8970000000000000e-01 8.5672216156833798e+00 2.6258921948856440e-01 1.8180820445569520e+01 -1 -2 5
1459 659 4 -1.1794000000000000e+00 8.3288753676565435e+00 -1.6998362194197407e+00 1.5114625479475702e+01 -1 -2 5
1460 659 5 5.8970000000000000e-01 8.6384705369436432e+00 -2.4288340701889277e+00 1.5646187569982205e+01 -1 -2 5
2416 978 4 -1.1794000000000000e+00 9.9379278844188921e+00 8.4129989726943499e-01 1.7280546216779683e+01 -1 -1 4
1461 659 5 5.8970000000000000e-01 9.1113632740661341e+00 -1.1785186571433999e+00 1.4938578751455669e+01 -1 -2 5
2252 923 5 5.8970000000000000e-01 8.7459601010211170e+00 2.4733182835858956e+00 1.5975563603199475e+01 -1 0 4
2251 923 4 -1.1794000000000000e+00 7.9091171702326619e+00 2.5567010279682267e+00 1.6423121926583299e+01 -1 0 4
2313 943 5 5.8970000000000000e-01 7.4169906194666888e+00 -1.5951593204520262e+00 1.3769280298707118e+01 -2 -3 4
1852 790 4 -1.1794000000000000e+00 1.0146500095366417e+01 2.7327046441473248e+00 1.4977147871995852e+01 -2 -1 6
2253 923 5 5.8970000000000000e-01 8.1346647887952006e+00 2.9131067210452861e+00 1.7280177960562185e+01 -1 0 4
1113 543 5 5.8970000000000000e-01 7.1009057366323320e+00 5.8745734422429630e-01 1.8399128256687774e+01 -1 -2 5
1593 703 5 5.8970000000000000e-01 1.0477621154938420e+01 -1.2687206736463161e-01 1.3473352927454746e+01 -1 -2 6
2186 901 5 5.8970000000000000e-01 -7.1056201803685584e+00 9.7887200446697111e+00 1.6193813178764028e+01 -1 -1 4
1272 596 5 5.8970000000000000e-01 -8.5127679755801928e+00 3.3043313726388184e+00 1.3906960289563424e+01 -2 0 6
2187 901 5 5.8970000000000000e-01 -8.5978497195716717e+00 9.5603066504839163e+00 1.6272576624607755e+01 -1 -1 4
1499 672 5 5.8970000000000000e-01 -9.8389407779207403e+00 9.8692019451993467e+00 1.4309181097820703e+01 0 -1 5
1085 534 5 5.8970000000000000e-01 -6.7352036168548688e+00 7.5954525613225385e+00 1.4213007515070604e+01 -4 -3 4
1021 513 4 -1.1794000000000000e+00 -9.5824567599566706e+00 3.5673778530389355e+00 1.7036193142891101e+01 -2 -1 5
1203 573 5 5.8970000000000000e-01 -7.2512575515414230e+00 4.1964279946086105e+00 1.5419008706223199e+01 -3 -2 5
1201 573 4 -1.1794000000000000e+00 -7.8326835483736792e+00 4.5585782264440855e+00 1.4748347742609100e+01 -3 -2 5
1474 664 4 -1.1794000000000000e+00 -9.4322771688888558e+00 9.4001172947034757e+00 1.8021875459253764e+01 0 0 4
1132 550 4 -1.1794000000000000e+00 -6.2952888162020493e+00 4.0404657593642250e+00 1.6921036312825706e+01 -1 -2 6
1133 550 5 5.8970000000000000e-01 -6.9062470715566544e+00 4.5294053261757963e+00 1.7473874228584439e+01 -1 -2 6
1638 718 5 5.8970000000000000e-01 -8.2059916098864036e+00 8.1078441404194326e+00 1.7517803490764699e+01 -2 -2 5
1636 718 4 -1.1794000000000000e+00 -7.7396527076360160e+00 7.4362772202365290e+00 1.7021127621117067e+01 -2 -2 5
2033 850 5 5.8970000000000000e-01 -9.0035795175415174e+00 6.9533459875512200e+00 1.6128855731308757e+01 -2 -3 3
2032 850 4 -1.1794000000000000e+00 -9.7558616346407288e+00 6.7741932965749756e+00 1.5566893002080267e+01 -2 -3 3
1022 513 5 5.8970000000000000e-01 -9.8794616285687464e+00 4.3801013861386817e+00 1.7437473916517096e+01 -2 -1 5
1475 664 5 5.8970000000000000e-01 -1.0296802922347764e+01 8.9977292775650799e+00 1.7922767158235686e+01 0 0 4
1637 718 5 5.8970000000000000e-01 -7.5368921064028003e+00 6.7543766150205649e+00 1.7666165716727843e+01 -2 -2 5
1086 534 5 5.8970000000000000e-01 -6.7318742464833905e+00 7.4651811382492372e+00 1.5723923306343536e+01 -4 -3 4
1202 573 5 5.8970000000000000e-01 -8.4793571481946834e+00 5.0583361271524474e+00 1.5242457358807407e+01 -3 -2 5
1084 534 4 -1.1794000000000000e+00 -6.2338483855342615e+00 7.2172856105806007e+00 1.4938905070805523e+01 -4 -3 4
1255 591 4 -1.1794000000000000e+00 -5.8817539274409354e+00 9.3899631688144805e+00 1.7055924184554183e+01 -2 -3 6
2034 850 5 5.8970000000000000e-01 -9.8068498719131014e+00 7.5323311142274276e+00 1.4982766258348452e+01 -2 -3 3
1498 672 4 -1.1794000000000000e+00 -9.9336959832222504e+00 8.9584459278641333e+00 1.4029036535460445e+01 0 -1 5
1256 591 5 5.8970000000000000e-01 -5.9738849938987135e+00 8.5139863988420874e+00 1.7433363336007133e+01 -2 -3 6
1699 739 4 -1.1794000000000000e+00 -7.5741015001419898e+00 5.4008586737398412e+00 1.8708059171162489e+01 -2 -1 5
1134 550 5 5.8970000000000000e-01 -5.4818806705079997e+00 4.5344181485995563e+00 1.6965829390392940e+01 -1 -2 6
1696 738 4 -1.1794000000000000e+00 -1.0568012629116952e+01 5.5604201405731084e+00 1.8461398946055986e+01 0 -1 6
1698 738 5 5.8970000000000000e-01 -1.0600212621120763e+01 6.4556663596031356e+00 1.8127420143165423e+01 0 -1 6
2352 956 5 5.8970000000000000e-01 -8.3620765655577802e+00 8.4437572191458727e+00 1.3464775041093738e+01 -2 -3 5
1227 581 5 5.8970000000000000e-01 -2.1349788491338364e+00 9.5512618174623451e+00 1.7785860405427979e+01 -2 -3 4
1354 624 4 -1.1794000000000000e+00 -2.8890441532507092e+00 5.2474603352356084e+00 1.3936893757917630e+01 -2 -2 4
2227 915 4 -1.1794000000000000e+00 -3.5144401683274240e-01 9.4025100307675604e+00 1.3415299419234964e+01 -1 -2 6
1417 645 4 -1.1794000000000000e+00 -5.0600478995905274e+00 7.2097141941211227e+00 1.8480792602255399e+01 -1 -1 6
2063 860 5 5.8970000000000000e-01 -4.3369651485989555e+00 9.2345327424270334e+00 1.5845317007881825e+01 -1 -3 4
2064 860 5 5.8970000000000000e-01 -4.3992752138331825e+00 8.2691705544964798e+00 1.4683272466992664e+01 -1 -3 4
1543 687 4 -1.1794000000000000e+00 -6.9240026916012776e-01 3.8605200390776759e+00 1.4310405457278275e+01 -2 -1 6
2062 860 4 -1.1794000000000000e+00 -3.8075723550057687e+00 8.8619397272334854e+00 1.5141180329242895e+01 -1 -3 4
1225 581 4 -1.1794000000000000e+00 -2.0585355537590626e+00 8.8556467299552466e+00 1.8440357462024792e+01 -2 -3 4
1356 624 5 5.8970000000000000e-01 -3.3672900054926771e+00 5.6692178231876662e+00 1.4650749024905664e+01 -2 -2 4
1831 783 4 -1.1794000000000000e+00 -1.5221434614057008e+00 7.5827495803677003e+00 1.5348770813595163e+01 -2 -2 6
1380 632 5 5.8970000000000000e-01 -4.4419510642102988e+00 6.4014339771064463e+00 1.7098771967928322e+01 -2 -4 5
2277 931 5 5.8970000000000000e-01 -1.8725016956465281e+00 4.2091638599113423e+00 1.6492160613467615e+01 -1 -1 5
2275 931 4 -1.1794000000000000e+00 -2.7327276775462805e+00 3.8282164336750344e+00 1.6673737458594463e+01 -1 -1 5
1379 632 5 5.8970000000000000e-01 -5.1601440510679026e+00 6.1994941423330214e+00 1.5780858026733906e+01 -2 -4 5
1378 632 4 -1.1794000000000000e+00 -4.3914931975868567e+00 5.9136250153608021e+00 1.6279059920002631e+01 -2 -4 5
1833 783 5 5.8970000000000000e-01 -2.3750813307582370e+00 8.0166464345969715e+00 1.5277840732005426e+01 -2 -2 6
2402 973 5 5.8970000000000000e-01 -2.2634452223711850e+00 7.1459818207418113e+00 1.8478808091582177e+01 -1 -3 4
2401 973 4 -1.1794000000000000e+00 -2.1696826388940083e+00 6.2247754573087359e+00 1.8708491310561339e+01 -1 -3 4
2403 973 5 5.8970000000000000e-01 -1.4835562610672761e+00 5.8991988362854384e+00 1.8126498492607517e+01 -1 -3 4
2276 931 5 5.8970000000000000e-01 -3.3505918662655798e+00 4.5348514009707603e+00 1.6489704136444175e+01 -1 -1 5
1832 783 5 5.8970000000000000e-01 -9.1332277889391400e-01 8.1908185581344970e+00 1.4937246219766619e+01 -2 -2 6
1556 691 5 5.8970000000000000e-01 -8.2637235850414548e-01 6.2968005718521471e+00 1.6375156488221858e+01 -2 -1 4
1555 691 4 -1.1794000000000000e+00 -3.1942789037742930e-01 5.6464234149577734e+00 1.6863743116931918e+01 -2 -1 4
1544 687 5 5.8970000000000000e-01 -1.4586928270215918e+00 4.4200468932880304e+00 1.4211568199294447e+01 -2 -1 6